0.01    0.01    0.01    0.01    0.01    0 	-0.0178378 	-0.0083656 	-0.0202246 	1.87379e-12 	-5.94817e-13 	1.01278e-13 	5.49233e-13 	6.99298e-15 	2.8864e-13 	6.39622e-09 	-4.65589e-09 	4.27913e-09 	3.38908e-09 	-3.11483e-09 	2.86278e-09
0.01    0.01    0.01    0.01    0.01    0.09 	-0.0178378 	-0.0083656 	-0.0202246 	1.87379e-12 	-5.94817e-13 	1.01278e-13 	5.49233e-13 	6.99298e-15 	2.8864e-13 	6.39622e-09 	-4.65589e-09 	4.27913e-09 	3.38908e-09 	-3.11483e-09 	2.86278e-09
0.01    0.01    0.01    0.01    0.01    0.18 	-0.0178378 	-0.0083656 	-0.0202246 	1.87379e-12 	-5.94817e-13 	1.01278e-13 	5.49233e-13 	6.99298e-15 	2.8864e-13 	6.39622e-09 	-4.65589e-09 	4.27913e-09 	3.38908e-09 	-3.11483e-09 	2.86278e-09
0.01    0.01    0.01    0.01    0.01    0.27 	-0.00644731 	0.00133327 	0.0624131 	6.66737e-13 	-1.22285e-12 	2.87865e-13 	3.10399e-12 	-4.03726e-13 	3.1958e-13 	4.83529e-09 	3.52429e-09 	-1.88433e-09 	2.56874e-09 	-1.37343e-09 	7.34329e-10
0.01    0.01    0.01    0.01    0.01    0.36 	-0.00644731 	0.00133327 	0.0624131 	6.66737e-13 	-1.22285e-12 	2.87865e-13 	3.10399e-12 	-4.03726e-13 	3.1958e-13 	4.83529e-09 	3.52429e-09 	-1.88433e-09 	2.56874e-09 	-1.37343e-09 	7.34329e-10
0.01    0.01    0.01    0.01    0.01    0.45 	0.0737539 	0.0222508 	0.0459301 	1.0559e-12 	-4.92111e-13 	3.60948e-13 	5.2426e-13 	-1.78535e-14 	4.15777e-13 	2.87526e-09 	-5.47783e-09 	-3.12906e-09 	1.04362e-08 	5.96137e-09 	3.40526e-09
0.01    0.01    0.01    0.01    0.01    0.54 	0.0737539 	0.0222508 	0.0459301 	1.0559e-12 	-4.92111e-13 	3.60948e-13 	5.2426e-13 	-1.78535e-14 	4.15777e-13 	2.87526e-09 	-5.47783e-09 	-3.12906e-09 	1.04362e-08 	5.96137e-09 	3.40526e-09
0.01    0.01    0.01    0.01    0.01    0.63 	0.0520966 	0.0447163 	-0.0166525 	7.57131e-13 	-1.32658e-13 	3.73586e-13 	3.07807e-13 	-1.79197e-13 	5.14158e-13 	7.83538e-10 	-2.10251e-10 	-1.03682e-09 	5.64179e-11 	2.78217e-10 	1.37198e-09
0.01    0.01    0.01    0.01    0.01    0.72 	0.0520966 	0.0447163 	-0.0166525 	7.57131e-13 	-1.32658e-13 	3.73586e-13 	3.07807e-13 	-1.79197e-13 	5.14158e-13 	7.83538e-10 	-2.10251e-10 	-1.03682e-09 	5.64179e-11 	2.78217e-10 	1.37198e-09
0.01    0.01    0.01    0.01    0.01    0.81 	-0.00940315 	-0.0179698 	0.0128214 	1.28444e-12 	-2.87579e-13 	4.65842e-13 	3.13963e-13 	-1.27511e-13 	6.07502e-13 	1.40558e-09 	1.27967e-09 	6.3555e-10 	1.16504e-09 	5.78618e-10 	2.87371e-10
0.01    0.01    0.01    0.01    0.01    0.9 	-0.00940315 	-0.0179698 	0.0128214 	1.28444e-12 	-2.87579e-13 	4.65842e-13 	3.13963e-13 	-1.27511e-13 	6.07502e-13 	1.40558e-09 	1.27967e-09 	6.3555e-10 	1.16504e-09 	5.78618e-10 	2.87371e-10
0.01    0.01    0.01    0.01    0.01    0.99 	-0.0187175 	0.013917 	-0.0178573 	4.14547e-13 	-2.0793e-14 	5.74577e-14 	2.00184e-13 	3.60767e-14 	2.31892e-13 	8.52474e-12 	1.92643e-10 	5.51059e-11 	4.35336e-09 	1.24529e-09 	3.56217e-10
0.01    0.01    0.01    0.01    0.01    1.08 	-0.0187175 	0.013917 	-0.0178573 	4.14547e-13 	-2.0793e-14 	5.74577e-14 	2.00184e-13 	3.60767e-14 	2.31892e-13 	8.52474e-12 	1.92643e-10 	5.51059e-11 	4.35336e-09 	1.24529e-09 	3.56217e-10
0.01    0.01    0.01    0.01    0.01    1.17 	-0.0187175 	0.013917 	-0.0178573 	4.14547e-13 	-2.0793e-14 	5.74577e-14 	2.00184e-13 	3.60767e-14 	2.31892e-13 	8.52474e-12 	1.92643e-10 	5.51059e-11 	4.35336e-09 	1.24529e-09 	3.56217e-10
0.01    0.01    0.01    0.01    0.01    1.26 	-0.00182301 	-0.0390778 	0.053181 	7.79264e-13 	-1.56368e-13 	7.85953e-14 	2.19881e-13 	3.74217e-15 	2.81332e-13 	2.51971e-09 	-2.761e-09 	2.87166e-09 	3.0254e-09 	-3.14665e-09 	3.27276e-09
0.01    0.01    0.01    0.01    0.01    1.35 	-0.00182301 	-0.0390778 	0.053181 	7.79264e-13 	-1.56368e-13 	7.85953e-14 	2.19881e-13 	3.74217e-15 	2.81332e-13 	2.51971e-09 	-2.761e-09 	2.87166e-09 	3.0254e-09 	-3.14665e-09 	3.27276e-09
0.01    0.01    0.01    0.01    0.01    1.44 	0.0110428 	-0.0154616 	-0.0669381 	7.07317e-13 	-1.72368e-13 	-2.13513e-13 	2.88492e-13 	1.26194e-13 	4.84423e-13 	1.77111e-09 	1.5207e-10 	1.7821e-09 	1.3057e-11 	1.53013e-10 	1.79315e-09
0.01    0.01    0.01    0.01    0.01    1.53 	0.0110428 	-0.0154616 	-0.0669381 	7.07317e-13 	-1.72368e-13 	-2.13513e-13 	2.88492e-13 	1.26194e-13 	4.84423e-13 	1.77111e-09 	1.5207e-10 	1.7821e-09 	1.3057e-11 	1.53013e-10 	1.79315e-09
0.01    0.01    0.01    0.01    0.01    1.62 	0.0752262 	0.0159158 	0.0656429 	7.3411e-13 	-1.1648e-13 	1.33025e-13 	3.87139e-13 	2.62062e-14 	1.5923e-13 	6.91864e-09 	-2.23057e-09 	-2.72282e-09 	7.19133e-10 	8.77834e-10 	1.07156e-09
0.01    0.01    0.01    0.01    0.01    1.71 	0.0752262 	0.0159158 	0.0656429 	7.3411e-13 	-1.1648e-13 	1.33025e-13 	3.87139e-13 	2.62062e-14 	1.5923e-13 	6.91864e-09 	-2.23057e-09 	-2.72282e-09 	7.19133e-10 	8.77834e-10 	1.07156e-09
0.01    0.01    0.01    0.01    0.01    1.8 	-0.0797139 	0.0035235 	0.06561 	9.61715e-13 	-5.22666e-13 	-4.58293e-13 	4.14607e-13 	9.07946e-14 	2.20661e-13 	2.28643e-10 	1.56777e-10 	6.70978e-10 	1.07499e-10 	4.60079e-10 	1.96906e-09
0.01    0.01    0.01    0.01    0.01    1.89 	-0.0797139 	0.0035235 	0.06561 	9.61715e-13 	-5.22666e-13 	-4.58293e-13 	4.14607e-13 	9.07946e-14 	2.20661e-13 	2.28643e-10 	1.56777e-10 	6.70978e-10 	1.07499e-10 	4.60079e-10 	1.96906e-09
0.01    0.01    0.01    0.01    0.01    1.98 	-0.0562956 	-0.0139964 	-0.00864582 	1.07903e-12 	-4.07861e-13 	-3.8985e-13 	3.73893e-13 	9.91682e-14 	5.42295e-13 	1.70568e-10 	4.88957e-10 	4.60072e-10 	1.40166e-09 	1.31886e-09 	1.24095e-09
0.01    0.01    0.01    0.01    0.01    2.07 	-0.0562956 	-0.0139964 	-0.00864582 	1.07903e-12 	-4.07861e-13 	-3.8985e-13 	3.73893e-13 	9.91682e-14 	5.42295e-13 	1.70568e-10 	4.88957e-10 	4.60072e-10 	1.40166e-09 	1.31886e-09 	1.24095e-09
0.01    0.01    0.01    0.01    0.01    2.16 	0.0174003 	-0.0389008 	-0.0111723 	9.96672e-13 	-2.20166e-13 	-7.19589e-14 	3.79759e-13 	5.72869e-14 	3.50872e-13 	6.07737e-10 	1.06967e-09 	-1.1213e-09 	1.8827e-09 	-1.97358e-09 	2.06885e-09
0.01    0.01    0.01    0.01    0.01    2.25 	0.0174003 	-0.0389008 	-0.0111723 	9.96672e-13 	-2.20166e-13 	-7.19589e-14 	3.79759e-13 	5.72869e-14 	3.50872e-13 	6.07737e-10 	1.06967e-09 	-1.1213e-09 	1.8827e-09 	-1.97358e-09 	2.06885e-09
0.01    0.01    0.01    0.01    0.01    2.34 	0.0174003 	-0.0389008 	-0.0111723 	9.96672e-13 	-2.20166e-13 	-7.19589e-14 	3.79759e-13 	5.72869e-14 	3.50872e-13 	6.07737e-10 	1.06967e-09 	-1.1213e-09 	1.8827e-09 	-1.97358e-09 	2.06885e-09
0.01    0.01    0.01    0.01    0.01    2.43 	0.00668098 	0.023347 	0.0216836 	9.4541e-13 	-4.52725e-13 	6.43616e-14 	7.08595e-13 	-1.03332e-13 	2.42819e-13 	3.57102e-10 	-1.91025e-09 	1.15936e-09 	1.02185e-08 	-6.2018e-09 	3.76399e-09
0.01    0.01    0.01    0.01    0.01    2.52 	0.00668098 	0.023347 	0.0216836 	9.4541e-13 	-4.52725e-13 	6.43616e-14 	7.08595e-13 	-1.03332e-13 	2.42819e-13 	3.57102e-10 	-1.91025e-09 	1.15936e-09 	1.02185e-08 	-6.2018e-09 	3.76399e-09
0.01    0.01    0.01    0.01    0.01    2.61 	0.0422466 	0.0213747 	0.0805632 	7.61769e-13 	-2.45979e-13 	1.62853e-14 	4.0044e-13 	-1.83275e-14 	2.26342e-13 	3.01628e-10 	8.29074e-10 	-1.65618e-10 	2.27885e-09 	-4.55229e-10 	9.0938e-11
0.01    0.01    0.01    0.01    0.01    2.7 	0.0422466 	0.0213747 	0.0805632 	7.61769e-13 	-2.45979e-13 	1.62853e-14 	4.0044e-13 	-1.83275e-14 	2.26342e-13 	3.01628e-10 	8.29074e-10 	-1.65618e-10 	2.27885e-09 	-4.55229e-10 	9.0938e-11
0.01    0.01    0.01    0.01    0.01    2.79 	0.0053083 	0.0358421 	0.069927 	5.26247e-13 	-1.69428e-13 	-3.86242e-14 	2.94207e-13 	-2.6758e-14 	4.1034e-13 	1.31331e-10 	-1.20745e-09 	-1.18179e-09 	1.11013e-08 	1.08653e-08 	1.06343e-08
0.01    0.01    0.01    0.01    0.01    2.88 	0.0053083 	0.0358421 	0.069927 	5.26247e-13 	-1.69428e-13 	-3.86242e-14 	2.94207e-13 	-2.6758e-14 	4.1034e-13 	1.31331e-10 	-1.20745e-09 	-1.18179e-09 	1.11013e-08 	1.08653e-08 	1.06343e-08
0.01    0.01    0.01    0.01    0.01    2.97 	-0.0150952 	-0.0148987 	0.0445235 	4.33848e-13 	-1.51296e-13 	-6.00576e-17 	2.73979e-13 	6.86951e-15 	3.16676e-13 	2.41565e-09 	-9.48188e-09 	3.64063e-09 	3.72182e-08 	-1.42902e-08 	5.48679e-09
0.01    0.01    0.01    0.01    0.01    3.06 	-0.0150952 	-0.0148987 	0.0445235 	4.33848e-13 	-1.51296e-13 	-6.00576e-17 	2.73979e-13 	6.86951e-15 	3.16676e-13 	2.41565e-09 	-9.48188e-09 	3.64063e-09 	3.72182e-08 	-1.42902e-08 	5.48679e-09
0.01    0.01    0.01    0.01    0.01    3.15 	0.0489925 	-0.0924074 	0.0771411 	5.70195e-13 	-1.9734e-13 	2.31277e-14 	2.84951e-13 	-2.69689e-14 	2.51258e-13 	6.61462e-09 	-3.19541e-09 	1.19072e-09 	1.54365e-09 	-5.75218e-10 	2.14346e-10
0.01    0.01    0.01    0.01    0.01    3.24 	0.0489925 	-0.0924074 	0.0771411 	5.70195e-13 	-1.9734e-13 	2.31277e-14 	2.84951e-13 	-2.69689e-14 	2.51258e-13 	6.61462e-09 	-3.19541e-09 	1.19072e-09 	1.54365e-09 	-5.75218e-10 	2.14346e-10
0.01    0.01    0.01    0.01    0.01    3.33 	0.0149993 	-0.0244135 	0.0513912 	1.04894e-12 	-5.21563e-13 	3.22006e-13 	6.77907e-13 	-2.65972e-13 	5.47681e-13 	1.40606e-08 	-2.51874e-08 	1.46089e-08 	4.51193e-08 	-2.61695e-08 	1.51785e-08
0.01    0.01    0.01    0.01    0.01    3.42 	0.0149993 	-0.0244135 	0.0513912 	1.04894e-12 	-5.21563e-13 	3.22006e-13 	6.77907e-13 	-2.65972e-13 	5.47681e-13 	1.40606e-08 	-2.51874e-08 	1.46089e-08 	4.51193e-08 	-2.61695e-08 	1.51785e-08
0.01    0.01    0.01    0.01    0.01    3.51 	0.0149993 	-0.0244135 	0.0513912 	1.04894e-12 	-5.21563e-13 	3.22006e-13 	6.77907e-13 	-2.65972e-13 	5.47681e-13 	1.40606e-08 	-2.51874e-08 	1.46089e-08 	4.51193e-08 	-2.61695e-08 	1.51785e-08
0.01    0.01    0.01    0.01    0.01    3.6 	-0.0404141 	-0.0240152 	-0.00934573 	7.15786e-13 	-4.47452e-13 	1.85592e-13 	5.37074e-13 	-2.03284e-14 	3.96696e-13 	1.98993e-10 	2.11177e-09 	-4.29286e-10 	2.24106e-08 	-4.5557e-09 	9.26098e-10
0.01    0.01    0.01    0.01    0.01    3.69 	-0.0404141 	-0.0240152 	-0.00934573 	7.15786e-13 	-4.47452e-13 	1.85592e-13 	5.37074e-13 	-2.03284e-14 	3.96696e-13 	1.98993e-10 	2.11177e-09 	-4.29286e-10 	2.24106e-08 	-4.5557e-09 	9.26098e-10
0.01    0.01    0.01    0.01    0.01    3.78 	0.00152488 	-0.00491657 	0.0374604 	6.31454e-13 	-3.30965e-13 	9.39945e-14 	4.14015e-13 	1.65626e-14 	3.36748e-13 	3.61959e-09 	-4.40323e-09 	-1.85497e-09 	5.35653e-09 	2.25657e-09 	9.50634e-10
0.01    0.01    0.01    0.01    0.01    3.87 	0.00152488 	-0.00491657 	0.0374604 	6.31454e-13 	-3.30965e-13 	9.39945e-14 	4.14015e-13 	1.65626e-14 	3.36748e-13 	3.61959e-09 	-4.40323e-09 	-1.85497e-09 	5.35653e-09 	2.25657e-09 	9.50634e-10
0.01    0.01    0.01    0.01    0.01    3.96 	-0.0218528 	-0.0010765 	-0.0273436 	1.37382e-12 	-2.84425e-13 	-1.48724e-14 	2.92686e-13 	1.01505e-13 	4.55536e-13 	2.67433e-09 	3.44152e-09 	-5.59448e-10 	4.42881e-09 	-7.19938e-10 	1.17032e-10
0.01    0.01    0.01    0.01    0.01    4.05 	-0.0218528 	-0.0010765 	-0.0273436 	1.37382e-12 	-2.84425e-13 	-1.48724e-14 	2.92686e-13 	1.01505e-13 	4.55536e-13 	2.67433e-09 	3.44152e-09 	-5.59448e-10 	4.42881e-09 	-7.19938e-10 	1.17032e-10
0.01    0.01    0.01    0.01    0.01    4.14 	0.0404673 	-0.0606925 	-0.0168953 	8.93721e-13 	-5.74988e-13 	-4.3605e-13 	6.42537e-13 	2.6754e-13 	4.07122e-13 	7.94776e-09 	-5.24253e-09 	7.2063e-10 	3.45809e-09 	-4.75344e-10 	6.53402e-11
0.01    0.01    0.01    0.01    0.01    4.23 	0.0404673 	-0.0606925 	-0.0168953 	8.93721e-13 	-5.74988e-13 	-4.3605e-13 	6.42537e-13 	2.6754e-13 	4.07122e-13 	7.94776e-09 	-5.24253e-09 	7.2063e-10 	3.45809e-09 	-4.75344e-10 	6.53402e-11
0.01    0.01    0.01    0.01    0.01    4.32 	-0.0241452 	0.034027 	-0.0296696 	7.23078e-13 	-1.97372e-13 	1.94087e-13 	2.56383e-13 	-7.00424e-14 	4.7077e-13 	1.07419e-09 	-7.00373e-10 	-1.62267e-09 	4.56644e-10 	1.05798e-09 	2.45121e-09
0.01    0.01    0.01    0.01    0.01    4.41 	-0.0241452 	0.034027 	-0.0296696 	7.23078e-13 	-1.97372e-13 	1.94087e-13 	2.56383e-13 	-7.00424e-14 	4.7077e-13 	1.07419e-09 	-7.00373e-10 	-1.62267e-09 	4.56644e-10 	1.05798e-09 	2.45121e-09
0.01    0.01    0.01    0.01    0.01    4.5 	-0.0241452 	0.034027 	-0.0296696 	7.23078e-13 	-1.97372e-13 	1.94087e-13 	2.56383e-13 	-7.00424e-14 	4.7077e-13 	1.07419e-09 	-7.00373e-10 	-1.62267e-09 	4.56644e-10 	1.05798e-09 	2.45121e-09
