0.1    0.1    0.1    0.1    0 	0.126393 	-0.0584905 	0.0105607 	8.61113e-13 	-3.6568e-13 	1.79016e-13 	2.58592e-13 	-3.85625e-14 	1.69776e-13 	1.90297e-06 	1.6463e-07 	5.7183e-07 	1.43477e-08 	4.96794e-08 	1.72249e-07
0.1    0.1    0.1    0.1    0.09 	0.126393 	-0.0584905 	0.0105607 	8.61113e-13 	-3.6568e-13 	1.79016e-13 	2.58592e-13 	-3.85625e-14 	1.69776e-13 	1.90297e-06 	1.6463e-07 	5.7183e-07 	1.43477e-08 	4.96794e-08 	1.72249e-07
0.1    0.1    0.1    0.1    0.18 	0.126393 	-0.0584905 	0.0105607 	8.61113e-13 	-3.6568e-13 	1.79016e-13 	2.58592e-13 	-3.85625e-14 	1.69776e-13 	1.90297e-06 	1.6463e-07 	5.7183e-07 	1.43477e-08 	4.96794e-08 	1.72249e-07
0.1    0.1    0.1    0.1    0.27 	0.161144 	-0.0487261 	-0.0474387 	6.89042e-13 	-3.13089e-13 	-5.97005e-14 	2.3215e-13 	-6.04764e-15 	1.64092e-13 	2.88355e-07 	2.53914e-08 	4.16716e-08 	2.2756e-09 	3.65447e-09 	6.04608e-09
0.1    0.1    0.1    0.1    0.36 	0.161144 	-0.0487261 	-0.0474387 	6.89042e-13 	-3.13089e-13 	-5.97005e-14 	2.3215e-13 	-6.04764e-15 	1.64092e-13 	2.88355e-07 	2.53914e-08 	4.16716e-08 	2.2756e-09 	3.65447e-09 	6.04608e-09
0.1    0.1    0.1    0.1    0.45 	0.0519763 	-0.0199592 	-0.00821015 	4.99178e-13 	-2.13901e-13 	4.71115e-14 	2.37799e-13 	-2.53639e-14 	1.72683e-13 	1.71184e-07 	9.59127e-08 	9.22795e-08 	5.39147e-08 	5.16163e-08 	4.98291e-08
0.1    0.1    0.1    0.1    0.54 	0.0519763 	-0.0199592 	-0.00821015 	4.99178e-13 	-2.13901e-13 	4.71115e-14 	2.37799e-13 	-2.53639e-14 	1.72683e-13 	1.71184e-07 	9.59127e-08 	9.22795e-08 	5.39147e-08 	5.16163e-08 	4.98291e-08
0.1    0.1    0.1    0.1    0.63 	0.0954226 	-0.0279275 	-0.0324656 	6.97742e-13 	-3.81819e-13 	9.56418e-14 	3.15164e-13 	-4.42187e-14 	2.10697e-13 	6.78145e-07 	2.77525e-07 	-1.49147e-08 	1.19781e-07 	-1.07328e-08 	3.79634e-09
0.1    0.1    0.1    0.1    0.72 	0.0954226 	-0.0279275 	-0.0324656 	6.97742e-13 	-3.81819e-13 	9.56418e-14 	3.15164e-13 	-4.42187e-14 	2.10697e-13 	6.78145e-07 	2.77525e-07 	-1.49147e-08 	1.19781e-07 	-1.07328e-08 	3.79634e-09
0.1    0.1    0.1    0.1    0.81 	0.0795716 	-0.00657845 	0.0022552 	1.09746e-12 	-5.73401e-13 	-1.77544e-13 	4.67152e-13 	4.54674e-14 	1.3922e-13 	8.17641e-07 	-1.34663e-07 	1.11066e-07 	2.25201e-08 	-1.8388e-08 	1.5114e-08
0.1    0.1    0.1    0.1    0.9 	0.0795716 	-0.00657845 	0.0022552 	1.09746e-12 	-5.73401e-13 	-1.77544e-13 	4.67152e-13 	4.54674e-14 	1.3922e-13 	8.17641e-07 	-1.34663e-07 	1.11066e-07 	2.25201e-08 	-1.8388e-08 	1.5114e-08
0.1    0.1    0.1    0.1    0.99 	0.11286 	0.0124864 	0.0177532 	1.33391e-12 	-5.521e-13 	-1.89268e-13 	3.05314e-13 	-6.39716e-15 	1.57659e-13 	5.17667e-07 	3.66082e-07 	-8.0283e-08 	2.65033e-07 	-5.12528e-08 	1.75497e-08
0.1    0.1    0.1    0.1    1.08 	0.11286 	0.0124864 	0.0177532 	1.33391e-12 	-5.521e-13 	-1.89268e-13 	3.05314e-13 	-6.39716e-15 	1.57659e-13 	5.17667e-07 	3.66082e-07 	-8.0283e-08 	2.65033e-07 	-5.12528e-08 	1.75497e-08
0.1    0.1    0.1    0.1    1.17 	0.11286 	0.0124864 	0.0177532 	1.33391e-12 	-5.521e-13 	-1.89268e-13 	3.05314e-13 	-6.39716e-15 	1.57659e-13 	5.17667e-07 	3.66082e-07 	-8.0283e-08 	2.65033e-07 	-5.12528e-08 	1.75497e-08
0.1    0.1    0.1    0.1    1.26 	0.0180322 	0.0473561 	0.0276449 	6.28703e-13 	-1.29551e-13 	6.32068e-14 	1.55652e-13 	6.08777e-15 	2.10367e-13 	1.08905e-07 	-6.41792e-08 	-6.60358e-09 	3.78373e-08 	3.86223e-09 	5.98045e-10
0.1    0.1    0.1    0.1    1.35 	0.0180322 	0.0473561 	0.0276449 	6.28703e-13 	-1.29551e-13 	6.32068e-14 	1.55652e-13 	6.08777e-15 	2.10367e-13 	1.08905e-07 	-6.41792e-08 	-6.60358e-09 	3.78373e-08 	3.86223e-09 	5.98045e-10
0.1    0.1    0.1    0.1    1.44 	0.0636179 	0.0337757 	-0.0149975 	8.19262e-13 	-3.14643e-13 	5.73719e-14 	2.91864e-13 	-1.92779e-14 	1.70615e-13 	2.34398e-08 	-6.24276e-09 	-7.40819e-09 	1.78158e-09 	1.90032e-09 	2.3911e-09
0.1    0.1    0.1    0.1    1.53 	0.0636179 	0.0337757 	-0.0149975 	8.19262e-13 	-3.14643e-13 	5.73719e-14 	2.91864e-13 	-1.92779e-14 	1.70615e-13 	2.34398e-08 	-6.24276e-09 	-7.40819e-09 	1.78158e-09 	1.90032e-09 	2.3911e-09
0.1    0.1    0.1    0.1    1.62 	0.0684662 	0.0360108 	0.0502169 	8.37343e-13 	-2.69229e-13 	-1.51611e-13 	2.32477e-13 	3.63323e-14 	2.23591e-13 	2.8601e-07 	5.8021e-08 	-3.8389e-07 	1.20531e-08 	-7.544e-08 	5.36321e-07
0.1    0.1    0.1    0.1    1.71 	0.0684662 	0.0360108 	0.0502169 	8.37343e-13 	-2.69229e-13 	-1.51611e-13 	2.32477e-13 	3.63323e-14 	2.23591e-13 	2.8601e-07 	5.8021e-08 	-3.8389e-07 	1.20531e-08 	-7.544e-08 	5.36321e-07
0.1    0.1    0.1    0.1    1.8 	0.0713632 	0.00974342 	0.0402874 	5.98954e-13 	-1.63851e-13 	9.23074e-14 	1.53715e-13 	-1.74433e-14 	2.28038e-13 	2.08431e-08 	2.72045e-08 	3.17704e-08 	3.75217e-08 	4.28265e-08 	4.93924e-08
0.1    0.1    0.1    0.1    1.89 	0.0713632 	0.00974342 	0.0402874 	5.98954e-13 	-1.63851e-13 	9.23074e-14 	1.53715e-13 	-1.74433e-14 	2.28038e-13 	2.08431e-08 	2.72045e-08 	3.17704e-08 	3.75217e-08 	4.28265e-08 	4.93924e-08
0.1    0.1    0.1    0.1    1.98 	0.058347 	0.0346385 	0.0580734 	5.06282e-13 	-1.4922e-13 	2.31468e-14 	1.35162e-13 	-3.97957e-15 	2.28467e-13 	1.30708e-07 	-2.28963e-07 	-7.42163e-08 	4.03057e-07 	1.30242e-07 	4.21724e-08
0.1    0.1    0.1    0.1    2.07 	0.058347 	0.0346385 	0.0580734 	5.06282e-13 	-1.4922e-13 	2.31468e-14 	1.35162e-13 	-3.97957e-15 	2.28467e-13 	1.30708e-07 	-2.28963e-07 	-7.42163e-08 	4.03057e-07 	1.30242e-07 	4.21724e-08
0.1    0.1    0.1    0.1    2.16 	0.059246 	-0.014056 	-0.00485647 	3.8409e-13 	-1.35466e-13 	2.14995e-15 	1.45961e-13 	4.10667e-14 	2.52439e-13 	1.86417e-08 	1.11826e-08 	1.03856e-07 	6.98761e-09 	6.73219e-08 	6.73267e-07
0.1    0.1    0.1    0.1    2.25 	0.059246 	-0.014056 	-0.00485647 	3.8409e-13 	-1.35466e-13 	2.14995e-15 	1.45961e-13 	4.10667e-14 	2.52439e-13 	1.86417e-08 	1.11826e-08 	1.03856e-07 	6.98761e-09 	6.73219e-08 	6.73267e-07
0.1    0.1    0.1    0.1    2.34 	0.059246 	-0.014056 	-0.00485647 	3.8409e-13 	-1.35466e-13 	2.14995e-15 	1.45961e-13 	4.10667e-14 	2.52439e-13 	1.86417e-08 	1.11826e-08 	1.03856e-07 	6.98761e-09 	6.73219e-08 	6.73267e-07
0.1    0.1    0.1    0.1    2.43 	0.0802072 	-0.0564547 	-0.0269276 	3.53841e-13 	-1.47658e-13 	1.04228e-14 	1.91511e-13 	-1.48292e-14 	1.98929e-13 	4.39093e-07 	-3.19425e-07 	4.71385e-08 	2.32596e-07 	-3.41923e-08 	5.1644e-09
0.1    0.1    0.1    0.1    2.52 	0.0802072 	-0.0564547 	-0.0269276 	3.53841e-13 	-1.47658e-13 	1.04228e-14 	1.91511e-13 	-1.48292e-14 	1.98929e-13 	4.39093e-07 	-3.19425e-07 	4.71385e-08 	2.32596e-07 	-3.41923e-08 	5.1644e-09
0.1    0.1    0.1    0.1    2.61 	0.0988704 	0.0142662 	-0.0471183 	8.48163e-13 	-2.95076e-13 	5.9218e-14 	2.6292e-13 	2.28676e-14 	2.7731e-13 	1.42277e-06 	-1.06535e-06 	6.83177e-07 	7.98528e-07 	-5.11633e-07 	3.28055e-07
0.1    0.1    0.1    0.1    2.7 	0.0988704 	0.0142662 	-0.0471183 	8.48163e-13 	-2.95076e-13 	5.9218e-14 	2.6292e-13 	2.28676e-14 	2.7731e-13 	1.42277e-06 	-1.06535e-06 	6.83177e-07 	7.98528e-07 	-5.11633e-07 	3.28055e-07
0.1    0.1    0.1    0.1    2.79 	0.133417 	-0.0470825 	0.000832086 	1.11123e-12 	-2.66526e-13 	1.28442e-13 	2.73162e-13 	-1.62125e-14 	2.52054e-13 	6.54059e-07 	2.46006e-07 	5.73452e-07 	9.26692e-08 	2.16089e-07 	5.03925e-07
0.1    0.1    0.1    0.1    2.88 	0.133417 	-0.0470825 	0.000832086 	1.11123e-12 	-2.66526e-13 	1.28442e-13 	2.73162e-13 	-1.62125e-14 	2.52054e-13 	6.54059e-07 	2.46006e-07 	5.73452e-07 	9.26692e-08 	2.16089e-07 	5.03925e-07
0.1    0.1    0.1    0.1    2.97 	0.0876127 	0.0121383 	0.0198335 	6.8407e-13 	-1.61004e-13 	-3.22838e-14 	2.11404e-13 	5.22878e-14 	2.16463e-13 	8.95464e-09 	2.47584e-08 	-5.09358e-08 	7.09854e-08 	-1.47578e-07 	3.0776e-07
0.1    0.1    0.1    0.1    3.06 	0.0876127 	0.0121383 	0.0198335 	6.8407e-13 	-1.61004e-13 	-3.22838e-14 	2.11404e-13 	5.22878e-14 	2.16463e-13 	8.95464e-09 	2.47584e-08 	-5.09358e-08 	7.09854e-08 	-1.47578e-07 	3.0776e-07
0.1    0.1    0.1    0.1    3.15 	0.100524 	-0.0653318 	0.0328932 	5.10269e-13 	-1.63343e-13 	-2.80731e-14 	2.20927e-13 	3.51397e-14 	2.03139e-13 	3.13471e-08 	7.18943e-08 	-9.14244e-08 	1.92342e-07 	-2.29198e-07 	2.80532e-07
0.1    0.1    0.1    0.1    3.24 	0.100524 	-0.0653318 	0.0328932 	5.10269e-13 	-1.63343e-13 	-2.80731e-14 	2.20927e-13 	3.51397e-14 	2.03139e-13 	3.13471e-08 	7.18943e-08 	-9.14244e-08 	1.92342e-07 	-2.29198e-07 	2.80532e-07
0.1    0.1    0.1    0.1    3.33 	0.153933 	-0.0445874 	0.0662496 	5.16866e-13 	-1.41537e-13 	5.49029e-14 	1.60673e-13 	-8.12147e-15 	2.19375e-13 	3.21509e-07 	3.56435e-08 	-5.52288e-08 	4.81945e-09 	-5.55216e-09 	9.87683e-09
0.1    0.1    0.1    0.1    3.42 	0.153933 	-0.0445874 	0.0662496 	5.16866e-13 	-1.41537e-13 	5.49029e-14 	1.60673e-13 	-8.12147e-15 	2.19375e-13 	3.21509e-07 	3.56435e-08 	-5.52288e-08 	4.81945e-09 	-5.55216e-09 	9.87683e-09
0.1    0.1    0.1    0.1    3.51 	0.153933 	-0.0445874 	0.0662496 	5.16866e-13 	-1.41537e-13 	5.49029e-14 	1.60673e-13 	-8.12147e-15 	2.19375e-13 	3.21509e-07 	3.56435e-08 	-5.52288e-08 	4.81945e-09 	-5.55216e-09 	9.87683e-09
0.1    0.1    0.1    0.1    3.6 	0.0924495 	-0.000800893 	0.0292299 	4.51536e-13 	-1.59505e-13 	1.66013e-14 	1.3676e-13 	-2.23157e-14 	1.9818e-13 	5.22085e-08 	-5.78209e-08 	-9.95695e-08 	7.47896e-08 	1.25949e-07 	2.12828e-07
0.1    0.1    0.1    0.1    3.69 	0.0924495 	-0.000800893 	0.0292299 	4.51536e-13 	-1.59505e-13 	1.66013e-14 	1.3676e-13 	-2.23157e-14 	1.9818e-13 	5.22085e-08 	-5.78209e-08 	-9.95695e-08 	7.47896e-08 	1.25949e-07 	2.12828e-07
0.1    0.1    0.1    0.1    3.78 	0.118117 	-0.0252954 	-0.00378466 	6.71599e-13 	-2.19569e-13 	7.42558e-14 	2.37207e-13 	-4.24532e-14 	1.92612e-13 	1.7386e-07 	-3.38599e-08 	-1.87499e-07 	7.35796e-09 	3.4564e-08 	2.07204e-07
0.1    0.1    0.1    0.1    3.87 	0.118117 	-0.0252954 	-0.00378466 	6.71599e-13 	-2.19569e-13 	7.42558e-14 	2.37207e-13 	-4.24532e-14 	1.92612e-13 	1.7386e-07 	-3.38599e-08 	-1.87499e-07 	7.35796e-09 	3.4564e-08 	2.07204e-07
0.1    0.1    0.1    0.1    3.96 	0.0801307 	0.0229236 	0.0311844 	5.55942e-13 	-1.74815e-13 	1.40523e-14 	1.81864e-13 	6.90374e-15 	2.34605e-13 	1.76981e-07 	5.86864e-08 	-2.09962e-07 	1.98276e-08 	-6.89707e-08 	2.50888e-07
0.1    0.1    0.1    0.1    4.05 	0.0801307 	0.0229236 	0.0311844 	5.55942e-13 	-1.74815e-13 	1.40523e-14 	1.81864e-13 	6.90374e-15 	2.34605e-13 	1.76981e-07 	5.86864e-08 	-2.09962e-07 	1.98276e-08 	-6.89707e-08 	2.50888e-07
0.1    0.1    0.1    0.1    4.14 	0.130755 	-0.0209703 	0.0140979 	8.17874e-13 	-2.42155e-13 	1.66021e-13 	1.88059e-13 	-9.51296e-15 	2.57763e-13 	9.47258e-07 	-3.93163e-07 	-1.59682e-06 	1.63793e-07 	6.65726e-07 	2.70662e-06
0.1    0.1    0.1    0.1    4.23 	0.130755 	-0.0209703 	0.0140979 	8.17874e-13 	-2.42155e-13 	1.66021e-13 	1.88059e-13 	-9.51296e-15 	2.57763e-13 	9.47258e-07 	-3.93163e-07 	-1.59682e-06 	1.63793e-07 	6.65726e-07 	2.70662e-06
0.1    0.1    0.1    0.1    4.32 	0.149752 	-0.0521391 	-0.0292708 	1.1852e-12 	-3.81098e-13 	5.79094e-14 	3.05678e-13 	5.06835e-15 	1.35427e-13 	7.57158e-07 	-3.64817e-07 	-4.30902e-08 	1.76827e-07 	2.02143e-08 	2.7519e-09
0.1    0.1    0.1    0.1    4.41 	0.149752 	-0.0521391 	-0.0292708 	1.1852e-12 	-3.81098e-13 	5.79094e-14 	3.05678e-13 	5.06835e-15 	1.35427e-13 	7.57158e-07 	-3.64817e-07 	-4.30902e-08 	1.76827e-07 	2.02143e-08 	2.7519e-09
0.1    0.1    0.1    0.1    4.5 	0.149752 	-0.0521391 	-0.0292708 	1.1852e-12 	-3.81098e-13 	5.79094e-14 	3.05678e-13 	5.06835e-15 	1.35427e-13 	7.57158e-07 	-3.64817e-07 	-4.30902e-08 	1.76827e-07 	2.02143e-08 	2.7519e-09
