0.1    0.1    0.1    0.1    0 	0.0201187 	-0.0290644 	-0.0401137 	4.03909e-13 	-5.77627e-14 	-2.8059e-14 	1.21538e-13 	1.55643e-14 	2.54645e-13 	9.06505e-08 	2.75059e-08 	-1.07537e-07 	9.16803e-09 	-3.23463e-08 	1.27682e-07
0.1    0.1    0.1    0.1    0.09 	0.0201187 	-0.0290644 	-0.0401137 	4.03909e-13 	-5.77627e-14 	-2.8059e-14 	1.21538e-13 	1.55643e-14 	2.54645e-13 	9.06505e-08 	2.75059e-08 	-1.07537e-07 	9.16803e-09 	-3.23463e-08 	1.27682e-07
0.1    0.1    0.1    0.1    0.18 	0.0201187 	-0.0290644 	-0.0401137 	4.03909e-13 	-5.77627e-14 	-2.8059e-14 	1.21538e-13 	1.55643e-14 	2.54645e-13 	9.06505e-08 	2.75059e-08 	-1.07537e-07 	9.16803e-09 	-3.23463e-08 	1.27682e-07
0.1    0.1    0.1    0.1    0.27 	-0.0153547 	-0.00666726 	0.00265829 	4.66155e-13 	-6.53833e-14 	-4.69951e-14 	3.1221e-13 	1.90827e-13 	3.59226e-13 	2.22557e-09 	-7.32639e-09 	-4.26852e-09 	5.70267e-08 	4.07508e-08 	2.98485e-08
0.1    0.1    0.1    0.1    0.36 	-0.0153547 	-0.00666726 	0.00265829 	4.66155e-13 	-6.53833e-14 	-4.69951e-14 	3.1221e-13 	1.90827e-13 	3.59226e-13 	2.22557e-09 	-7.32639e-09 	-4.26852e-09 	5.70267e-08 	4.07508e-08 	2.98485e-08
0.1    0.1    0.1    0.1    0.45 	0.00339155 	-0.00492833 	0.0411112 	1.06958e-12 	-4.53942e-13 	8.46814e-14 	4.62237e-13 	-1.39058e-14 	3.84979e-13 	8.1386e-09 	1.56676e-08 	-5.19453e-09 	3.02681e-08 	-1.00452e-08 	3.33546e-09
0.1    0.1    0.1    0.1    0.54 	0.00339155 	-0.00492833 	0.0411112 	1.06958e-12 	-4.53942e-13 	8.46814e-14 	4.62237e-13 	-1.39058e-14 	3.84979e-13 	8.1386e-09 	1.56676e-08 	-5.19453e-09 	3.02681e-08 	-1.00452e-08 	3.33546e-09
0.1    0.1    0.1    0.1    0.63 	-0.0387244 	0.00351073 	0.0299475 	1.34372e-12 	-3.62311e-13 	4.76298e-13 	3.67609e-13 	-2.59367e-13 	6.64305e-13 	1.89123e-08 	-1.27188e-08 	5.54068e-08 	8.63785e-09 	-3.76479e-08 	1.6413e-07
0.1    0.1    0.1    0.1    0.72 	-0.0387244 	0.00351073 	0.0299475 	1.34372e-12 	-3.62311e-13 	4.76298e-13 	3.67609e-13 	-2.59367e-13 	6.64305e-13 	1.89123e-08 	-1.27188e-08 	5.54068e-08 	8.63785e-09 	-3.76479e-08 	1.6413e-07
0.1    0.1    0.1    0.1    0.81 	-0.044546 	0.00244651 	0.0366524 	6.44322e-13 	-9.55735e-14 	1.61669e-13 	1.85563e-13 	-5.94402e-14 	5.24804e-13 	1.24161e-09 	-1.00954e-09 	-1.61064e-09 	2.54647e-09 	2.3701e-09 	2.74608e-09
0.1    0.1    0.1    0.1    0.9 	-0.044546 	0.00244651 	0.0366524 	6.44322e-13 	-9.55735e-14 	1.61669e-13 	1.85563e-13 	-5.94402e-14 	5.24804e-13 	1.24161e-09 	-1.00954e-09 	-1.61064e-09 	2.54647e-09 	2.3701e-09 	2.74608e-09
0.1    0.1    0.1    0.1    0.99 	-0.0181071 	0.00132753 	-0.0192205 	3.7418e-13 	-1.14755e-14 	-1.07167e-13 	1.52374e-13 	4.25088e-14 	6.43377e-13 	1.69369e-08 	-9.86492e-09 	4.80579e-09 	6.15772e-09 	-2.78414e-09 	1.36654e-09
0.1    0.1    0.1    0.1    1.08 	-0.0181071 	0.00132753 	-0.0192205 	3.7418e-13 	-1.14755e-14 	-1.07167e-13 	1.52374e-13 	4.25088e-14 	6.43377e-13 	1.69369e-08 	-9.86492e-09 	4.80579e-09 	6.15772e-09 	-2.78414e-09 	1.36654e-09
0.1    0.1    0.1    0.1    1.17 	-0.0181071 	0.00132753 	-0.0192205 	3.7418e-13 	-1.14755e-14 	-1.07167e-13 	1.52374e-13 	4.25088e-14 	6.43377e-13 	1.69369e-08 	-9.86492e-09 	4.80579e-09 	6.15772e-09 	-2.78414e-09 	1.36654e-09
0.1    0.1    0.1    0.1    1.26 	-0.0293791 	0.0177923 	-0.00907091 	5.47196e-13 	-7.97034e-14 	-1.21983e-13 	1.98287e-13 	1.67173e-13 	3.7191e-13 	6.33337e-09 	-1.19586e-08 	8.36435e-09 	2.32041e-08 	-1.62069e-08 	1.13309e-08
0.1    0.1    0.1    0.1    1.35 	-0.0293791 	0.0177923 	-0.00907091 	5.47196e-13 	-7.97034e-14 	-1.21983e-13 	1.98287e-13 	1.67173e-13 	3.7191e-13 	6.33337e-09 	-1.19586e-08 	8.36435e-09 	2.32041e-08 	-1.62069e-08 	1.13309e-08
0.1    0.1    0.1    0.1    1.44 	-0.0270829 	-0.00363134 	-0.0126959 	5.9751e-13 	-2.57355e-13 	-1.89703e-13 	3.41137e-13 	6.23089e-14 	2.41527e-13 	1.45015e-08 	-8.05229e-09 	1.46323e-08 	4.50876e-09 	-8.14214e-09 	1.47891e-08
0.1    0.1    0.1    0.1    1.53 	-0.0270829 	-0.00363134 	-0.0126959 	5.9751e-13 	-2.57355e-13 	-1.89703e-13 	3.41137e-13 	6.23089e-14 	2.41527e-13 	1.45015e-08 	-8.05229e-09 	1.46323e-08 	4.50876e-09 	-8.14214e-09 	1.47891e-08
0.1    0.1    0.1    0.1    1.62 	-0.0329926 	0.00996732 	0.0147374 	6.79609e-13 	-8.29555e-14 	-3.19356e-13 	2.35024e-13 	-7.90708e-14 	5.72054e-13 	7.34448e-08 	-4.5232e-08 	2.16828e-08 	2.86299e-08 	-1.49784e-08 	9.81953e-09
0.1    0.1    0.1    0.1    1.71 	-0.0329926 	0.00996732 	0.0147374 	6.79609e-13 	-8.29555e-14 	-3.19356e-13 	2.35024e-13 	-7.90708e-14 	5.72054e-13 	7.34448e-08 	-4.5232e-08 	2.16828e-08 	2.86299e-08 	-1.49784e-08 	9.81953e-09
0.1    0.1    0.1    0.1    1.8 	-0.00213951 	-0.00909822 	-0.0317226 	5.51895e-13 	-1.04366e-13 	-1.70816e-13 	4.1352e-13 	-1.48615e-14 	5.0502e-13 	3.08871e-07 	1.21676e-07 	-1.61773e-09 	4.81091e-08 	-4.79684e-10 	1.51077e-10
0.1    0.1    0.1    0.1    1.89 	-0.00213951 	-0.00909822 	-0.0317226 	5.51895e-13 	-1.04366e-13 	-1.70816e-13 	4.1352e-13 	-1.48615e-14 	5.0502e-13 	3.08871e-07 	1.21676e-07 	-1.61773e-09 	4.81091e-08 	-4.79684e-10 	1.51077e-10
0.1    0.1    0.1    0.1    1.98 	0.0183866 	-0.0407381 	0.0186745 	3.8544e-13 	1.1721e-14 	-1.0164e-13 	3.33484e-13 	-1.49387e-13 	4.15623e-13 	7.28802e-07 	-1.68538e-07 	-7.69661e-07 	4.46755e-08 	1.74553e-07 	8.14887e-07
0.1    0.1    0.1    0.1    2.07 	0.0183866 	-0.0407381 	0.0186745 	3.8544e-13 	1.1721e-14 	-1.0164e-13 	3.33484e-13 	-1.49387e-13 	4.15623e-13 	7.28802e-07 	-1.68538e-07 	-7.69661e-07 	4.46755e-08 	1.74553e-07 	8.14887e-07
0.1    0.1    0.1    0.1    2.16 	-0.0339715 	-0.0433898 	-0.0155227 	7.1851e-13 	-1.37576e-13 	-4.76437e-14 	2.29619e-13 	-4.72508e-14 	2.31179e-13 	6.9731e-07 	-3.67071e-07 	-3.78344e-07 	1.94448e-07 	1.98564e-07 	2.05581e-07
0.1    0.1    0.1    0.1    2.25 	-0.0339715 	-0.0433898 	-0.0155227 	7.1851e-13 	-1.37576e-13 	-4.76437e-14 	2.29619e-13 	-4.72508e-14 	2.31179e-13 	6.9731e-07 	-3.67071e-07 	-3.78344e-07 	1.94448e-07 	1.98564e-07 	2.05581e-07
0.1    0.1    0.1    0.1    2.34 	-0.0339715 	-0.0433898 	-0.0155227 	7.1851e-13 	-1.37576e-13 	-4.76437e-14 	2.29619e-13 	-4.72508e-14 	2.31179e-13 	6.9731e-07 	-3.67071e-07 	-3.78344e-07 	1.94448e-07 	1.98564e-07 	2.05581e-07
0.1    0.1    0.1    0.1    2.43 	0.0178705 	-0.00847781 	0.0241503 	3.71444e-13 	-1.11817e-13 	-4.16068e-14 	2.39123e-13 	-5.0583e-14 	2.01871e-13 	1.12483e-07 	-9.51216e-09 	-4.2175e-08 	1.49877e-09 	2.93923e-09 	1.64426e-08
0.1    0.1    0.1    0.1    2.52 	0.0178705 	-0.00847781 	0.0241503 	3.71444e-13 	-1.11817e-13 	-4.16068e-14 	2.39123e-13 	-5.0583e-14 	2.01871e-13 	1.12483e-07 	-9.51216e-09 	-4.2175e-08 	1.49877e-09 	2.93923e-09 	1.64426e-08
0.1    0.1    0.1    0.1    2.61 	0.00857695 	-0.0123429 	-0.00355754 	4.69663e-13 	-1.91699e-13 	1.50317e-13 	3.82137e-13 	-1.24348e-13 	5.1983e-13 	4.81669e-09 	-2.08344e-09 	2.14683e-08 	1.15506e-09 	-1.04186e-08 	1.00772e-07
0.1    0.1    0.1    0.1    2.7 	0.00857695 	-0.0123429 	-0.00355754 	4.69663e-13 	-1.91699e-13 	1.50317e-13 	3.82137e-13 	-1.24348e-13 	5.1983e-13 	4.81669e-09 	-2.08344e-09 	2.14683e-08 	1.15506e-09 	-1.04186e-08 	1.00772e-07
0.1    0.1    0.1    0.1    2.79 	0.0302572 	-0.00964223 	0.0324712 	6.12355e-13 	-1.72372e-13 	1.59416e-13 	3.09233e-13 	-6.6543e-14 	3.08237e-13 	1.27106e-07 	3.01326e-08 	8.35935e-08 	7.46812e-09 	2.02518e-08 	5.55637e-08
0.1    0.1    0.1    0.1    2.88 	0.0302572 	-0.00964223 	0.0324712 	6.12355e-13 	-1.72372e-13 	1.59416e-13 	3.09233e-13 	-6.6543e-14 	3.08237e-13 	1.27106e-07 	3.01326e-08 	8.35935e-08 	7.46812e-09 	2.02518e-08 	5.55637e-08
0.1    0.1    0.1    0.1    2.97 	0.0205507 	0.0115242 	-0.0123813 	2.0486e-12 	-7.3827e-13 	5.52056e-13 	7.89167e-13 	-3.07009e-13 	1.11829e-12 	2.91997e-09 	2.27735e-09 	-9.43576e-10 	1.72558e-08 	-1.0558e-08 	6.54978e-09
0.1    0.1    0.1    0.1    3.06 	0.0205507 	0.0115242 	-0.0123813 	2.0486e-12 	-7.3827e-13 	5.52056e-13 	7.89167e-13 	-3.07009e-13 	1.11829e-12 	2.91997e-09 	2.27735e-09 	-9.43576e-10 	1.72558e-08 	-1.0558e-08 	6.54978e-09
0.1    0.1    0.1    0.1    3.15 	0.00173663 	-0.040927 	0.0869391 	7.0995e-13 	-2.08579e-13 	8.98704e-14 	3.13737e-13 	-1.99238e-14 	3.96915e-13 	2.77993e-07 	2.01864e-08 	5.06503e-07 	4.35785e-09 	3.49136e-08 	9.24053e-07
0.1    0.1    0.1    0.1    3.24 	0.00173663 	-0.040927 	0.0869391 	7.0995e-13 	-2.08579e-13 	8.98704e-14 	3.13737e-13 	-1.99238e-14 	3.96915e-13 	2.77993e-07 	2.01864e-08 	5.06503e-07 	4.35785e-09 	3.49136e-08 	9.24053e-07
0.1    0.1    0.1    0.1    3.33 	0.0265123 	-0.0263435 	0.00858092 	5.55059e-13 	-1.66785e-13 	1.37776e-14 	2.25982e-13 	3.06895e-14 	3.15045e-13 	1.35377e-08 	3.75111e-08 	-3.75058e-08 	1.15384e-07 	-1.12783e-07 	1.10782e-07
0.1    0.1    0.1    0.1    3.42 	0.0265123 	-0.0263435 	0.00858092 	5.55059e-13 	-1.66785e-13 	1.37776e-14 	2.25982e-13 	3.06895e-14 	3.15045e-13 	1.35377e-08 	3.75111e-08 	-3.75058e-08 	1.15384e-07 	-1.12783e-07 	1.10782e-07
0.1    0.1    0.1    0.1    3.51 	0.0265123 	-0.0263435 	0.00858092 	5.55059e-13 	-1.66785e-13 	1.37776e-14 	2.25982e-13 	3.06895e-14 	3.15045e-13 	1.35377e-08 	3.75111e-08 	-3.75058e-08 	1.15384e-07 	-1.12783e-07 	1.10782e-07
0.1    0.1    0.1    0.1    3.6 	0.0202701 	0.00277626 	0.104657 	5.28507e-13 	-1.72097e-13 	2.74778e-13 	3.3512e-13 	-2.63713e-13 	1.07705e-12 	3.16346e-08 	6.71176e-08 	-4.29751e-08 	1.45227e-07 	-9.25269e-08 	5.911e-08
0.1    0.1    0.1    0.1    3.69 	0.0202701 	0.00277626 	0.104657 	5.28507e-13 	-1.72097e-13 	2.74778e-13 	3.3512e-13 	-2.63713e-13 	1.07705e-12 	3.16346e-08 	6.71176e-08 	-4.29751e-08 	1.45227e-07 	-9.25269e-08 	5.911e-08
0.1    0.1    0.1    0.1    3.78 	0.0106277 	-0.00803977 	0.0459589 	6.48013e-13 	-1.3818e-13 	4.13595e-13 	2.25686e-13 	-1.56888e-13 	7.92871e-13 	5.4213e-08 	-4.02623e-08 	2.02361e-08 	3.04043e-08 	-1.57175e-08 	8.57124e-09
0.1    0.1    0.1    0.1    3.87 	0.0106277 	-0.00803977 	0.0459589 	6.48013e-13 	-1.3818e-13 	4.13595e-13 	2.25686e-13 	-1.56888e-13 	7.92871e-13 	5.4213e-08 	-4.02623e-08 	2.02361e-08 	3.04043e-08 	-1.57175e-08 	8.57124e-09
0.1    0.1    0.1    0.1    3.96 	-0.0103586 	0.0128891 	0.0203614 	4.62687e-13 	2.24218e-15 	3.67969e-14 	4.82737e-13 	-5.06616e-13 	1.2003e-12 	8.71655e-09 	3.49204e-09 	-3.88136e-08 	2.03392e-09 	-1.94902e-08 	1.97301e-07
0.1    0.1    0.1    0.1    4.05 	-0.0103586 	0.0128891 	0.0203614 	4.62687e-13 	2.24218e-15 	3.67969e-14 	4.82737e-13 	-5.06616e-13 	1.2003e-12 	8.71655e-09 	3.49204e-09 	-3.88136e-08 	2.03392e-09 	-1.94902e-08 	1.97301e-07
0.1    0.1    0.1    0.1    4.14 	-0.0184062 	0.013908 	0.030291 	3.03047e-13 	-7.22176e-15 	-4.42008e-15 	3.38542e-13 	-2.61951e-13 	6.18063e-13 	9.59318e-09 	3.63687e-08 	-1.87137e-08 	1.38823e-07 	-6.97652e-08 	3.8506e-08
0.1    0.1    0.1    0.1    4.23 	-0.0184062 	0.013908 	0.030291 	3.03047e-13 	-7.22176e-15 	-4.42008e-15 	3.38542e-13 	-2.61951e-13 	6.18063e-13 	9.59318e-09 	3.63687e-08 	-1.87137e-08 	1.38823e-07 	-6.97652e-08 	3.8506e-08
0.1    0.1    0.1    0.1    4.32 	-0.0421161 	-0.00396895 	0.0713937 	5.55137e-13 	-1.5574e-13 	-5.46136e-13 	2.02102e-13 	2.06299e-13 	8.57826e-13 	9.3375e-08 	-2.56253e-08 	-5.51025e-08 	7.24211e-09 	1.52809e-08 	3.26419e-08
0.1    0.1    0.1    0.1    4.41 	-0.0421161 	-0.00396895 	0.0713937 	5.55137e-13 	-1.5574e-13 	-5.46136e-13 	2.02102e-13 	2.06299e-13 	8.57826e-13 	9.3375e-08 	-2.56253e-08 	-5.51025e-08 	7.24211e-09 	1.52809e-08 	3.26419e-08
0.1    0.1    0.1    0.1    4.5 	-0.0421161 	-0.00396895 	0.0713937 	5.55137e-13 	-1.5574e-13 	-5.46136e-13 	2.02102e-13 	2.06299e-13 	8.57826e-13 	9.3375e-08 	-2.56253e-08 	-5.51025e-08 	7.24211e-09 	1.52809e-08 	3.26419e-08
