0.02    0.02    0.02    0.02    0.02    0 	0.0809343 	0.00419947 	-0.0171527 	1.31881e-12 	-5.13484e-13 	-1.6135e-13 	2.17932e-13 	9.08929e-14 	1.69562e-13 	2.94862e-08 	-2.63186e-08 	-3.83629e-08 	2.34932e-08 	3.42455e-08 	4.99208e-08
0.02    0.02    0.02    0.02    0.02    0.09 	0.0809343 	0.00419947 	-0.0171527 	1.31881e-12 	-5.13484e-13 	-1.6135e-13 	2.17932e-13 	9.08929e-14 	1.69562e-13 	2.94862e-08 	-2.63186e-08 	-3.83629e-08 	2.34932e-08 	3.42455e-08 	4.99208e-08
0.02    0.02    0.02    0.02    0.02    0.18 	0.0809343 	0.00419947 	-0.0171527 	1.31881e-12 	-5.13484e-13 	-1.6135e-13 	2.17932e-13 	9.08929e-14 	1.69562e-13 	2.94862e-08 	-2.63186e-08 	-3.83629e-08 	2.34932e-08 	3.42455e-08 	4.99208e-08
0.02    0.02    0.02    0.02    0.02    0.27 	0.0679103 	-0.0210571 	0.020645 	1.10014e-12 	-3.77446e-13 	-1.46676e-13 	3.3507e-13 	5.07148e-14 	1.62986e-13 	2.36202e-09 	5.44232e-09 	-5.49348e-09 	1.25457e-08 	-1.26576e-08 	1.27773e-08
0.02    0.02    0.02    0.02    0.02    0.36 	0.0679103 	-0.0210571 	0.020645 	1.10014e-12 	-3.77446e-13 	-1.46676e-13 	3.3507e-13 	5.07148e-14 	1.62986e-13 	2.36202e-09 	5.44232e-09 	-5.49348e-09 	1.25457e-08 	-1.26576e-08 	1.27773e-08
0.02    0.02    0.02    0.02    0.02    0.45 	0.0390166 	-0.0243373 	0.0684411 	5.56988e-13 	-2.74876e-13 	-3.27842e-14 	2.2331e-13 	-4.14401e-15 	1.81206e-13 	1.98458e-08 	1.00091e-09 	-1.4884e-08 	5.06507e-11 	-7.50951e-10 	1.11648e-08
0.02    0.02    0.02    0.02    0.02    0.54 	0.0390166 	-0.0243373 	0.0684411 	5.56988e-13 	-2.74876e-13 	-3.27842e-14 	2.2331e-13 	-4.14401e-15 	1.81206e-13 	1.98458e-08 	1.00091e-09 	-1.4884e-08 	5.06507e-11 	-7.50951e-10 	1.11648e-08
0.02    0.02    0.02    0.02    0.02    0.63 	0.0513341 	0.00960515 	0.0169246 	7.84736e-13 	-2.0302e-13 	1.59933e-13 	1.3747e-13 	9.51489e-15 	3.21463e-13 	8.41732e-09 	1.28291e-08 	-6.80484e-10 	1.95714e-08 	-1.03867e-09 	5.52374e-11
0.02    0.02    0.02    0.02    0.02    0.72 	0.0513341 	0.00960515 	0.0169246 	7.84736e-13 	-2.0302e-13 	1.59933e-13 	1.3747e-13 	9.51489e-15 	3.21463e-13 	8.41732e-09 	1.28291e-08 	-6.80484e-10 	1.95714e-08 	-1.03867e-09 	5.52374e-11
0.02    0.02    0.02    0.02    0.02    0.81 	0.0653404 	-0.0239251 	0.0173432 	1.02877e-12 	-5.61359e-13 	8.68278e-14 	2.13417e-13 	4.02788e-14 	1.7952e-13 	4.78098e-09 	8.16916e-09 	-6.31402e-09 	1.39614e-08 	-1.07894e-08 	8.3409e-09
0.02    0.02    0.02    0.02    0.02    0.9 	0.0653404 	-0.0239251 	0.0173432 	1.02877e-12 	-5.61359e-13 	8.68278e-14 	2.13417e-13 	4.02788e-14 	1.7952e-13 	4.78098e-09 	8.16916e-09 	-6.31402e-09 	1.39614e-08 	-1.07894e-08 	8.3409e-09
0.02    0.02    0.02    0.02    0.02    0.99 	0.0281967 	-0.0255827 	-0.000955761 	5.23198e-13 	-2.22192e-13 	-9.4485e-14 	1.82766e-13 	9.72541e-14 	2.14186e-13 	1.87976e-12 	1.82433e-11 	-1.0417e-11 	3.58522e-08 	-2.15987e-08 	1.30121e-08
0.02    0.02    0.02    0.02    0.02    1.08 	0.0281967 	-0.0255827 	-0.000955761 	5.23198e-13 	-2.22192e-13 	-9.4485e-14 	1.82766e-13 	9.72541e-14 	2.14186e-13 	1.87976e-12 	1.82433e-11 	-1.0417e-11 	3.58522e-08 	-2.15987e-08 	1.30121e-08
0.02    0.02    0.02    0.02    0.02    1.17 	0.0281967 	-0.0255827 	-0.000955761 	5.23198e-13 	-2.22192e-13 	-9.4485e-14 	1.82766e-13 	9.72541e-14 	2.14186e-13 	1.87976e-12 	1.82433e-11 	-1.0417e-11 	3.58522e-08 	-2.15987e-08 	1.30121e-08
0.02    0.02    0.02    0.02    0.02    1.26 	0.0388573 	0.0056362 	-0.012736 	4.45439e-13 	-1.90855e-13 	5.65995e-14 	2.22127e-13 	-2.81967e-14 	1.8943e-13 	4.24373e-09 	3.68461e-09 	-3.84791e-09 	3.20346e-09 	-3.34668e-09 	3.49665e-09
0.02    0.02    0.02    0.02    0.02    1.35 	0.0388573 	0.0056362 	-0.012736 	4.45439e-13 	-1.90855e-13 	5.65995e-14 	2.22127e-13 	-2.81967e-14 	1.8943e-13 	4.24373e-09 	3.68461e-09 	-3.84791e-09 	3.20346e-09 	-3.34668e-09 	3.49665e-09
0.02    0.02    0.02    0.02    0.02    1.44 	-0.015755 	0.0584193 	-0.0201272 	3.11014e-13 	-1.81499e-13 	-3.35742e-14 	3.06121e-13 	-4.22109e-14 	2.10695e-13 	3.78196e-09 	-2.75919e-09 	-9.35052e-10 	2.01547e-09 	6.80775e-10 	2.32025e-10
0.02    0.02    0.02    0.02    0.02    1.53 	-0.015755 	0.0584193 	-0.0201272 	3.11014e-13 	-1.81499e-13 	-3.35742e-14 	3.06121e-13 	-4.22109e-14 	2.10695e-13 	3.78196e-09 	-2.75919e-09 	-9.35052e-10 	2.01547e-09 	6.80775e-10 	2.32025e-10
0.02    0.02    0.02    0.02    0.02    1.62 	0.0630318 	0.0106895 	-0.0233187 	7.34599e-13 	-5.5613e-13 	1.01565e-13 	3.30335e-13 	-3.49858e-14 	2.34034e-13 	1.80429e-10 	-2.83564e-09 	-1.8126e-09 	4.45703e-08 	2.84835e-08 	1.82119e-08
0.02    0.02    0.02    0.02    0.02    1.71 	0.0630318 	0.0106895 	-0.0233187 	7.34599e-13 	-5.5613e-13 	1.01565e-13 	3.30335e-13 	-3.49858e-14 	2.34034e-13 	1.80429e-10 	-2.83564e-09 	-1.8126e-09 	4.45703e-08 	2.84835e-08 	1.82119e-08
0.02    0.02    0.02    0.02    0.02    1.8 	0.0242556 	-0.0203155 	-0.0251058 	4.12193e-13 	-4.26608e-13 	3.01068e-13 	2.47595e-13 	-1.4515e-13 	3.36333e-13 	1.07628e-08 	1.85192e-08 	-2.74713e-08 	3.18713e-08 	-4.72703e-08 	7.01191e-08
0.02    0.02    0.02    0.02    0.02    1.89 	0.0242556 	-0.0203155 	-0.0251058 	4.12193e-13 	-4.26608e-13 	3.01068e-13 	2.47595e-13 	-1.4515e-13 	3.36333e-13 	1.07628e-08 	1.85192e-08 	-2.74713e-08 	3.18713e-08 	-4.72703e-08 	7.01191e-08
0.02    0.02    0.02    0.02    0.02    1.98 	0.183447 	-0.129335 	-0.00760002 	9.80397e-13 	-7.22813e-13 	1.01942e-13 	4.86119e-13 	-9.01446e-14 	2.01939e-13 	2.90439e-08 	-1.79474e-08 	1.04133e-08 	1.10919e-08 	-6.43756e-09 	3.73897e-09
0.02    0.02    0.02    0.02    0.02    2.07 	0.183447 	-0.129335 	-0.00760002 	9.80397e-13 	-7.22813e-13 	1.01942e-13 	4.86119e-13 	-9.01446e-14 	2.01939e-13 	2.90439e-08 	-1.79474e-08 	1.04133e-08 	1.10919e-08 	-6.43756e-09 	3.73897e-09
0.02    0.02    0.02    0.02    0.02    2.16 	0.122586 	-0.0221425 	0.0335865 	1.00417e-12 	-7.32421e-13 	1.26676e-13 	4.89919e-13 	-9.30901e-14 	2.93071e-13 	1.23098e-09 	-5.78639e-09 	-5.79269e-09 	2.74814e-08 	2.75383e-08 	2.75981e-08
0.02    0.02    0.02    0.02    0.02    2.25 	0.122586 	-0.0221425 	0.0335865 	1.00417e-12 	-7.32421e-13 	1.26676e-13 	4.89919e-13 	-9.30901e-14 	2.93071e-13 	1.23098e-09 	-5.78639e-09 	-5.79269e-09 	2.74814e-08 	2.75383e-08 	2.75981e-08
0.02    0.02    0.02    0.02    0.02    2.34 	0.122586 	-0.0221425 	0.0335865 	1.00417e-12 	-7.32421e-13 	1.26676e-13 	4.89919e-13 	-9.30901e-14 	2.93071e-13 	1.23098e-09 	-5.78639e-09 	-5.79269e-09 	2.74814e-08 	2.75383e-08 	2.75981e-08
0.02    0.02    0.02    0.02    0.02    2.43 	0.0947636 	-0.0061105 	-0.0158708 	7.12107e-13 	-2.4937e-13 	-1.24448e-14 	2.21696e-13 	1.58999e-15 	2.35956e-13 	2.23643e-09 	-1.67224e-09 	-6.12524e-10 	1.25081e-09 	4.58949e-10 	1.6981e-10
0.02    0.02    0.02    0.02    0.02    2.52 	0.0947636 	-0.0061105 	-0.0158708 	7.12107e-13 	-2.4937e-13 	-1.24448e-14 	2.21696e-13 	1.58999e-15 	2.35956e-13 	2.23643e-09 	-1.67224e-09 	-6.12524e-10 	1.25081e-09 	4.58949e-10 	1.6981e-10
0.02    0.02    0.02    0.02    0.02    2.61 	0.0615567 	0.0028904 	0.0209973 	6.60665e-13 	-1.14266e-13 	-7.80126e-15 	1.95553e-13 	-2.35178e-14 	2.22726e-13 	9.78927e-10 	1.61983e-09 	-7.00164e-10 	2.69683e-09 	-1.15856e-09 	5.00783e-10
0.02    0.02    0.02    0.02    0.02    2.7 	0.0615567 	0.0028904 	0.0209973 	6.60665e-13 	-1.14266e-13 	-7.80126e-15 	1.95553e-13 	-2.35178e-14 	2.22726e-13 	9.78927e-10 	1.61983e-09 	-7.00164e-10 	2.69683e-09 	-1.15856e-09 	5.00783e-10
0.02    0.02    0.02    0.02    0.02    2.79 	0.0120247 	0.0234829 	0.00953608 	6.9836e-13 	-2.77743e-13 	2.06309e-14 	2.5743e-13 	-2.74065e-14 	2.55088e-13 	7.99432e-09 	8.38813e-10 	-6.89926e-09 	1.14052e-10 	-7.30526e-10 	5.95599e-09
0.02    0.02    0.02    0.02    0.02    2.88 	0.0120247 	0.0234829 	0.00953608 	6.9836e-13 	-2.77743e-13 	2.06309e-14 	2.5743e-13 	-2.74065e-14 	2.55088e-13 	7.99432e-09 	8.38813e-10 	-6.89926e-09 	1.14052e-10 	-7.30526e-10 	5.95599e-09
0.02    0.02    0.02    0.02    0.02    2.97 	0.146978 	-0.027578 	-0.0108518 	7.91234e-13 	-5.06159e-13 	1.7671e-15 	4.08934e-13 	-8.87148e-15 	1.19798e-13 	8.5703e-09 	1.43112e-08 	-1.05456e-08 	2.38998e-08 	-1.76112e-08 	1.29791e-08
0.02    0.02    0.02    0.02    0.02    3.06 	0.146978 	-0.027578 	-0.0108518 	7.91234e-13 	-5.06159e-13 	1.7671e-15 	4.08934e-13 	-8.87148e-15 	1.19798e-13 	8.5703e-09 	1.43112e-08 	-1.05456e-08 	2.38998e-08 	-1.76112e-08 	1.29791e-08
0.02    0.02    0.02    0.02    0.02    3.15 	0.0902404 	-0.0125319 	0.0452213 	9.33009e-13 	-3.58655e-13 	-4.4267e-14 	3.36693e-13 	4.47204e-14 	2.0925e-13 	9.09779e-09 	1.05361e-08 	1.98489e-09 	1.22048e-08 	2.30004e-09 	4.33737e-10
0.02    0.02    0.02    0.02    0.02    3.24 	0.0902404 	-0.0125319 	0.0452213 	9.33009e-13 	-3.58655e-13 	-4.4267e-14 	3.36693e-13 	4.47204e-14 	2.0925e-13 	9.09779e-09 	1.05361e-08 	1.98489e-09 	1.22048e-08 	2.30004e-09 	4.33737e-10
0.02    0.02    0.02    0.02    0.02    3.33 	0.0698135 	0.0591311 	0.0619931 	5.45714e-13 	-2.6316e-13 	8.03917e-14 	3.0455e-13 	1.05855e-14 	2.39808e-13 	1.25552e-08 	2.36507e-09 	-1.35621e-08 	4.47193e-10 	-2.55682e-09 	1.46531e-08
0.02    0.02    0.02    0.02    0.02    3.42 	0.0698135 	0.0591311 	0.0619931 	5.45714e-13 	-2.6316e-13 	8.03917e-14 	3.0455e-13 	1.05855e-14 	2.39808e-13 	1.25552e-08 	2.36507e-09 	-1.35621e-08 	4.47193e-10 	-2.55682e-09 	1.46531e-08
0.02    0.02    0.02    0.02    0.02    3.51 	0.0698135 	0.0591311 	0.0619931 	5.45714e-13 	-2.6316e-13 	8.03917e-14 	3.0455e-13 	1.05855e-14 	2.39808e-13 	1.25552e-08 	2.36507e-09 	-1.35621e-08 	4.47193e-10 	-2.55682e-09 	1.46531e-08
0.02    0.02    0.02    0.02    0.02    3.6 	0.151907 	-0.0515884 	0.0381116 	6.84924e-13 	-3.00671e-13 	3.30231e-13 	2.16319e-13 	-5.04432e-14 	2.8205e-13 	2.99827e-08 	-8.70998e-09 	1.64934e-08 	2.53246e-09 	-4.7907e-09 	9.07452e-09
0.02    0.02    0.02    0.02    0.02    3.69 	0.151907 	-0.0515884 	0.0381116 	6.84924e-13 	-3.00671e-13 	3.30231e-13 	2.16319e-13 	-5.04432e-14 	2.8205e-13 	2.99827e-08 	-8.70998e-09 	1.64934e-08 	2.53246e-09 	-4.7907e-09 	9.07452e-09
0.02    0.02    0.02    0.02    0.02    3.78 	0.189121 	-0.106206 	0.0213333 	1.14064e-12 	-3.71401e-13 	4.16984e-14 	1.52801e-13 	-2.38273e-14 	2.93726e-13 	1.34389e-08 	-1.02193e-08 	-5.95063e-09 	7.77209e-09 	4.52503e-09 	2.63632e-09
0.02    0.02    0.02    0.02    0.02    3.87 	0.189121 	-0.106206 	0.0213333 	1.14064e-12 	-3.71401e-13 	4.16984e-14 	1.52801e-13 	-2.38273e-14 	2.93726e-13 	1.34389e-08 	-1.02193e-08 	-5.95063e-09 	7.77209e-09 	4.52503e-09 	2.63632e-09
0.02    0.02    0.02    0.02    0.02    3.96 	0.136715 	-0.0257951 	-0.0700809 	7.03248e-13 	-3.1968e-13 	-1.2244e-13 	1.60588e-13 	2.96692e-14 	2.11576e-13 	1.37363e-08 	1.2547e-08 	-1.08631e-08 	1.14607e-08 	-9.9222e-09 	8.59429e-09
0.02    0.02    0.02    0.02    0.02    4.05 	0.136715 	-0.0257951 	-0.0700809 	7.03248e-13 	-3.1968e-13 	-1.2244e-13 	1.60588e-13 	2.96692e-14 	2.11576e-13 	1.37363e-08 	1.2547e-08 	-1.08631e-08 	1.14607e-08 	-9.9222e-09 	8.59429e-09
0.02    0.02    0.02    0.02    0.02    4.14 	0.037476 	0.0297911 	0.0412813 	9.66849e-13 	-3.64896e-13 	-1.41049e-14 	2.48314e-13 	-8.19578e-15 	1.95719e-13 	5.5082e-09 	-3.08783e-09 	-1.0822e-08 	1.73129e-09 	6.06844e-09 	2.12736e-08
0.02    0.02    0.02    0.02    0.02    4.23 	0.037476 	0.0297911 	0.0412813 	9.66849e-13 	-3.64896e-13 	-1.41049e-14 	2.48314e-13 	-8.19578e-15 	1.95719e-13 	5.5082e-09 	-3.08783e-09 	-1.0822e-08 	1.73129e-09 	6.06844e-09 	2.12736e-08
0.02    0.02    0.02    0.02    0.02    4.32 	0.140942 	0.0222693 	-0.00832049 	1.07992e-12 	-3.08406e-13 	-1.41892e-13 	2.38341e-13 	8.65378e-14 	3.36517e-13 	2.66809e-09 	2.72946e-09 	1.06057e-08 	2.7939e-09 	1.08528e-08 	4.21642e-08
0.02    0.02    0.02    0.02    0.02    4.41 	0.140942 	0.0222693 	-0.00832049 	1.07992e-12 	-3.08406e-13 	-1.41892e-13 	2.38341e-13 	8.65378e-14 	3.36517e-13 	2.66809e-09 	2.72946e-09 	1.06057e-08 	2.7939e-09 	1.08528e-08 	4.21642e-08
0.02    0.02    0.02    0.02    0.02    4.5 	0.140942 	0.0222693 	-0.00832049 	1.07992e-12 	-3.08406e-13 	-1.41892e-13 	2.38341e-13 	8.65378e-14 	3.36517e-13 	2.66809e-09 	2.72946e-09 	1.06057e-08 	2.7939e-09 	1.08528e-08 	4.21642e-08
