0.2    0.2    0.2    0.2    0 	0.152078 	0.0062149 	0.00186239 	4.47049e-13 	-1.18282e-13 	1.1222e-13 	1.18312e-13 	-3.73531e-14 	1.82646e-13 	3.52929e-08 	-1.40569e-08 	-9.07564e-08 	5.8075e-09 	3.68676e-08 	2.3592e-07
0.2    0.2    0.2    0.2    0.09 	0.152078 	0.0062149 	0.00186239 	4.47049e-13 	-1.18282e-13 	1.1222e-13 	1.18312e-13 	-3.73531e-14 	1.82646e-13 	3.52929e-08 	-1.40569e-08 	-9.07564e-08 	5.8075e-09 	3.68676e-08 	2.3592e-07
0.2    0.2    0.2    0.2    0.18 	0.152078 	0.0062149 	0.00186239 	4.47049e-13 	-1.18282e-13 	1.1222e-13 	1.18312e-13 	-3.73531e-14 	1.82646e-13 	3.52929e-08 	-1.40569e-08 	-9.07564e-08 	5.8075e-09 	3.68676e-08 	2.3592e-07
0.2    0.2    0.2    0.2    0.27 	0.174196 	-0.00173869 	-0.00758622 	3.92312e-13 	-9.8048e-14 	3.73856e-14 	1.37943e-13 	-1.66113e-15 	1.21395e-13 	7.97413e-08 	1.12497e-08 	9.22328e-08 	1.65722e-09 	1.30426e-08 	1.06695e-07
0.2    0.2    0.2    0.2    0.36 	0.174196 	-0.00173869 	-0.00758622 	3.92312e-13 	-9.8048e-14 	3.73856e-14 	1.37943e-13 	-1.66113e-15 	1.21395e-13 	7.97413e-08 	1.12497e-08 	9.22328e-08 	1.65722e-09 	1.30426e-08 	1.06695e-07
0.2    0.2    0.2    0.2    0.45 	0.150479 	0.00321861 	0.00954943 	3.1602e-13 	-4.80919e-14 	5.34833e-14 	1.3306e-13 	-1.01964e-14 	1.27883e-13 	4.79433e-09 	-1.88141e-09 	2.67552e-08 	7.42595e-10 	-1.04871e-08 	1.49491e-07
0.2    0.2    0.2    0.2    0.54 	0.150479 	0.00321861 	0.00954943 	3.1602e-13 	-4.80919e-14 	5.34833e-14 	1.3306e-13 	-1.01964e-14 	1.27883e-13 	4.79433e-09 	-1.88141e-09 	2.67552e-08 	7.42595e-10 	-1.04871e-08 	1.49491e-07
0.2    0.2    0.2    0.2    0.63 	0.143194 	-0.0151498 	-0.00766211 	4.22435e-13 	-1.29354e-13 	4.99388e-14 	2.11363e-13 	-2.16304e-14 	1.32097e-13 	4.8353e-07 	-1.01404e-07 	-1.85441e-07 	2.12769e-08 	3.89037e-08 	7.11373e-08
0.2    0.2    0.2    0.2    0.72 	0.143194 	-0.0151498 	-0.00766211 	4.22435e-13 	-1.29354e-13 	4.99388e-14 	2.11363e-13 	-2.16304e-14 	1.32097e-13 	4.8353e-07 	-1.01404e-07 	-1.85441e-07 	2.12769e-08 	3.89037e-08 	7.11373e-08
0.2    0.2    0.2    0.2    0.81 	0.140302 	-0.00676332 	-0.000725962 	3.03327e-13 	-8.07146e-14 	4.90995e-14 	1.90993e-13 	-6.66897e-14 	1.14906e-13 	1.96696e-11 	-4.71734e-10 	6.12817e-10 	3.44161e-08 	-3.93395e-08 	4.54225e-08
0.2    0.2    0.2    0.2    0.9 	0.140302 	-0.00676332 	-0.000725962 	3.03327e-13 	-8.07146e-14 	4.90995e-14 	1.90993e-13 	-6.66897e-14 	1.14906e-13 	1.96696e-11 	-4.71734e-10 	6.12817e-10 	3.44161e-08 	-3.93395e-08 	4.54225e-08
0.2    0.2    0.2    0.2    0.99 	0.14005 	-0.0183341 	0.00111355 	2.88805e-13 	-8.35092e-14 	2.2763e-14 	1.2611e-13 	-1.53538e-14 	1.24634e-13 	2.66495e-07 	-5.80211e-08 	-1.83169e-07 	1.26348e-08 	3.98911e-08 	1.26163e-07
0.2    0.2    0.2    0.2    1.08 	0.14005 	-0.0183341 	0.00111355 	2.88805e-13 	-8.35092e-14 	2.2763e-14 	1.2611e-13 	-1.53538e-14 	1.24634e-13 	2.66495e-07 	-5.80211e-08 	-1.83169e-07 	1.26348e-08 	3.98911e-08 	1.26163e-07
0.2    0.2    0.2    0.2    1.17 	0.14005 	-0.0183341 	0.00111355 	2.88805e-13 	-8.35092e-14 	2.2763e-14 	1.2611e-13 	-1.53538e-14 	1.24634e-13 	2.66495e-07 	-5.80211e-08 	-1.83169e-07 	1.26348e-08 	3.98911e-08 	1.26163e-07
0.2    0.2    0.2    0.2    1.26 	0.139859 	0.00155581 	0.0102997 	2.37143e-13 	-5.75274e-14 	1.89527e-14 	1.04701e-13 	-1.99959e-14 	1.70359e-13 	1.32178e-11 	-1.80672e-10 	-9.40557e-11 	5.93708e-08 	2.92503e-08 	1.44156e-08
0.2    0.2    0.2    0.2    1.35 	0.139859 	0.00155581 	0.0102997 	2.37143e-13 	-5.75274e-14 	1.89527e-14 	1.04701e-13 	-1.99959e-14 	1.70359e-13 	1.32178e-11 	-1.80672e-10 	-9.40557e-11 	5.93708e-08 	2.92503e-08 	1.44156e-08
0.2    0.2    0.2    0.2    1.44 	0.135609 	-0.00784643 	0.003605 	3.05642e-13 	-1.29074e-13 	7.62825e-14 	1.62875e-13 	-6.75447e-14 	1.44648e-13 	6.81441e-10 	-1.04025e-08 	4.11607e-09 	1.607e-07 	-6.50432e-08 	2.75217e-08
0.2    0.2    0.2    0.2    1.53 	0.135609 	-0.00784643 	0.003605 	3.05642e-13 	-1.29074e-13 	7.62825e-14 	1.62875e-13 	-6.75447e-14 	1.44648e-13 	6.81441e-10 	-1.04025e-08 	4.11607e-09 	1.607e-07 	-6.50432e-08 	2.75217e-08
0.2    0.2    0.2    0.2    1.62 	0.137024 	0.00197433 	0.0137809 	3.09099e-13 	-2.47737e-14 	1.12578e-14 	1.93564e-13 	-1.23797e-14 	8.38739e-14 	6.64307e-07 	4.67236e-07 	1.67827e-08 	3.28898e-07 	1.19491e-08 	5.01843e-10
0.2    0.2    0.2    0.2    1.71 	0.137024 	0.00197433 	0.0137809 	3.09099e-13 	-2.47737e-14 	1.12578e-14 	1.93564e-13 	-1.23797e-14 	8.38739e-14 	6.64307e-07 	4.67236e-07 	1.67827e-08 	3.28898e-07 	1.19491e-08 	5.01843e-10
0.2    0.2    0.2    0.2    1.8 	0.129257 	0.00797856 	0.0287034 	2.93312e-13 	-4.73755e-14 	6.21297e-16 	1.23196e-13 	-2.39815e-14 	1.30314e-13 	2.79087e-08 	-2.32753e-08 	-9.71371e-08 	1.94116e-08 	8.10128e-08 	3.38537e-07
0.2    0.2    0.2    0.2    1.89 	0.129257 	0.00797856 	0.0287034 	2.93312e-13 	-4.73755e-14 	6.21297e-16 	1.23196e-13 	-2.39815e-14 	1.30314e-13 	2.79087e-08 	-2.32753e-08 	-9.71371e-08 	1.94116e-08 	8.10128e-08 	3.38537e-07
0.2    0.2    0.2    0.2    1.98 	0.15793 	-0.0101301 	0.00408187 	2.87493e-13 	-3.43485e-14 	-6.23653e-14 	7.7706e-14 	-9.7891e-15 	2.08547e-13 	2.252e-07 	-5.0528e-08 	-9.97669e-08 	1.15053e-08 	2.24033e-08 	4.42003e-08
0.2    0.2    0.2    0.2    2.07 	0.15793 	-0.0101301 	0.00408187 	2.87493e-13 	-3.43485e-14 	-6.23653e-14 	7.7706e-14 	-9.7891e-15 	2.08547e-13 	2.252e-07 	-5.0528e-08 	-9.97669e-08 	1.15053e-08 	2.24033e-08 	4.42003e-08
0.2    0.2    0.2    0.2    2.16 	0.155358 	-0.00151309 	-0.000602504 	2.37957e-13 	-3.85218e-14 	-2.47715e-14 	7.90278e-14 	1.04712e-14 	1.4659e-13 	5.51206e-09 	1.23712e-09 	-3.23172e-08 	2.77715e-10 	-7.25076e-09 	1.89649e-07
0.2    0.2    0.2    0.2    2.25 	0.155358 	-0.00151309 	-0.000602504 	2.37957e-13 	-3.85218e-14 	-2.47715e-14 	7.90278e-14 	1.04712e-14 	1.4659e-13 	5.51206e-09 	1.23712e-09 	-3.23172e-08 	2.77715e-10 	-7.25076e-09 	1.89649e-07
0.2    0.2    0.2    0.2    2.34 	0.155358 	-0.00151309 	-0.000602504 	2.37957e-13 	-3.85218e-14 	-2.47715e-14 	7.90278e-14 	1.04712e-14 	1.4659e-13 	5.51206e-09 	1.23712e-09 	-3.23172e-08 	2.77715e-10 	-7.25076e-09 	1.89649e-07
0.2    0.2    0.2    0.2    2.43 	0.162833 	-0.00566496 	-0.00738924 	2.54897e-13 	-2.83837e-14 	-2.72142e-14 	8.91423e-14 	5.9664e-15 	1.00813e-13 	1.10008e-07 	-6.05756e-08 	4.44735e-09 	3.37859e-08 	-2.45498e-09 	1.79988e-10
0.2    0.2    0.2    0.2    2.52 	0.162833 	-0.00566496 	-0.00738924 	2.54897e-13 	-2.83837e-14 	-2.72142e-14 	8.91423e-14 	5.9664e-15 	1.00813e-13 	1.10008e-07 	-6.05756e-08 	4.44735e-09 	3.37859e-08 	-2.45498e-09 	1.79988e-10
0.2    0.2    0.2    0.2    2.61 	0.159861 	-0.0177962 	0.00365204 	2.72926e-13 	-4.64603e-14 	-3.08303e-14 	9.28347e-14 	1.82139e-15 	1.01635e-13 	2.50041e-08 	-1.44714e-08 	-1.48406e-08 	8.45147e-09 	8.63016e-09 	8.83071e-09
0.2    0.2    0.2    0.2    2.7 	0.159861 	-0.0177962 	0.00365204 	2.72926e-13 	-4.64603e-14 	-3.08303e-14 	9.28347e-14 	1.82139e-15 	1.01635e-13 	2.50041e-08 	-1.44714e-08 	-1.48406e-08 	8.45147e-09 	8.63016e-09 	8.83071e-09
0.2    0.2    0.2    0.2    2.79 	0.150689 	0.00790499 	0.00187322 	2.47618e-13 	-2.26649e-14 	-4.46068e-14 	9.60946e-14 	-1.13893e-14 	1.11032e-13 	1.35577e-07 	-5.82928e-08 	-1.00559e-07 	2.50788e-08 	4.32371e-08 	7.4586e-08
0.2    0.2    0.2    0.2    2.88 	0.150689 	0.00790499 	0.00187322 	2.47618e-13 	-2.26649e-14 	-4.46068e-14 	9.60946e-14 	-1.13893e-14 	1.11032e-13 	1.35577e-07 	-5.82928e-08 	-1.00559e-07 	2.50788e-08 	4.32371e-08 	7.4586e-08
0.2    0.2    0.2    0.2    2.97 	0.167194 	0.00527695 	0.00454871 	3.04285e-13 	2.98328e-14 	-4.30046e-14 	7.30851e-14 	2.68313e-14 	1.484e-13 	7.60092e-10 	4.30284e-09 	-7.71025e-10 	2.75673e-08 	-5.39573e-09 	1.11407e-09
0.2    0.2    0.2    0.2    3.06 	0.167194 	0.00527695 	0.00454871 	3.04285e-13 	2.98328e-14 	-4.30046e-14 	7.30851e-14 	2.68313e-14 	1.484e-13 	7.60092e-10 	4.30284e-09 	-7.71025e-10 	2.75673e-08 	-5.39573e-09 	1.11407e-09
0.2    0.2    0.2    0.2    3.15 	0.15252 	-0.0207684 	-0.00560014 	2.52839e-13 	4.04283e-14 	3.41476e-15 	7.20318e-14 	-2.11081e-14 	1.29215e-13 	3.76113e-09 	-2.39717e-08 	1.89882e-09 	1.66763e-07 	-1.31491e-08 	1.03735e-09
0.2    0.2    0.2    0.2    3.24 	0.15252 	-0.0207684 	-0.00560014 	2.52839e-13 	4.04283e-14 	3.41476e-15 	7.20318e-14 	-2.11081e-14 	1.29215e-13 	3.76113e-09 	-2.39717e-08 	1.89882e-09 	1.66763e-07 	-1.31491e-08 	1.03735e-09
0.2    0.2    0.2    0.2    3.33 	0.182258 	-0.00854464 	0.00573735 	2.73294e-13 	7.87359e-16 	3.51353e-14 	1.14939e-13 	-3.18192e-14 	1.03483e-13 	2.85942e-08 	4.55876e-08 	-4.78407e-08 	7.34949e-08 	-7.61944e-08 	8.00524e-08
0.2    0.2    0.2    0.2    3.42 	0.182258 	-0.00854464 	0.00573735 	2.73294e-13 	7.87359e-16 	3.51353e-14 	1.14939e-13 	-3.18192e-14 	1.03483e-13 	2.85942e-08 	4.55876e-08 	-4.78407e-08 	7.34949e-08 	-7.61944e-08 	8.00524e-08
0.2    0.2    0.2    0.2    3.51 	0.182258 	-0.00854464 	0.00573735 	2.73294e-13 	7.87359e-16 	3.51353e-14 	1.14939e-13 	-3.18192e-14 	1.03483e-13 	2.85942e-08 	4.55876e-08 	-4.78407e-08 	7.34949e-08 	-7.61944e-08 	8.00524e-08
0.2    0.2    0.2    0.2    3.6 	0.143766 	0.00148661 	0.00404995 	3.24606e-13 	-9.12636e-14 	5.80259e-14 	1.01106e-13 	-2.6083e-14 	1.47011e-13 	6.58871e-08 	1.13241e-08 	1.90305e-08 	1.97751e-09 	3.27772e-09 	5.4985e-09
0.2    0.2    0.2    0.2    3.69 	0.143766 	0.00148661 	0.00404995 	3.24606e-13 	-9.12636e-14 	5.80259e-14 	1.01106e-13 	-2.6083e-14 	1.47011e-13 	6.58871e-08 	1.13241e-08 	1.90305e-08 	1.97751e-09 	3.27772e-09 	5.4985e-09
0.2    0.2    0.2    0.2    3.78 	0.164565 	-0.00341684 	0.00558416 	2.38719e-13 	-2.84372e-14 	3.2343e-14 	6.73611e-14 	1.55224e-15 	1.28024e-13 	5.4292e-08 	1.38278e-08 	-1.1954e-09 	3.55205e-09 	-3.59186e-10 	1.31144e-10
0.2    0.2    0.2    0.2    3.87 	0.164565 	-0.00341684 	0.00558416 	2.38719e-13 	-2.84372e-14 	3.2343e-14 	6.73611e-14 	1.55224e-15 	1.28024e-13 	5.4292e-08 	1.38278e-08 	-1.1954e-09 	3.55205e-09 	-3.59186e-10 	1.31144e-10
0.2    0.2    0.2    0.2    3.96 	0.161387 	-0.00432189 	-0.000189149 	2.52364e-13 	-7.32576e-15 	4.57437e-14 	7.27525e-14 	-3.03796e-14 	1.30028e-13 	1.0985e-07 	-6.17663e-08 	1.07978e-08 	3.47852e-08 	-6.05083e-09 	1.06958e-09
0.2    0.2    0.2    0.2    4.05 	0.161387 	-0.00432189 	-0.000189149 	2.52364e-13 	-7.32576e-15 	4.57437e-14 	7.27525e-14 	-3.03796e-14 	1.30028e-13 	1.0985e-07 	-6.17663e-08 	1.07978e-08 	3.47852e-08 	-6.05083e-09 	1.06958e-09
0.2    0.2    0.2    0.2    4.14 	0.174684 	-0.00607712 	-0.0114369 	4.63308e-13 	-1.73127e-13 	6.72656e-14 	1.75137e-13 	-3.62447e-14 	1.33369e-13 	5.44592e-08 	4.5447e-08 	-5.87659e-08 	3.79372e-08 	-4.90427e-08 	6.36223e-08
0.2    0.2    0.2    0.2    4.23 	0.174684 	-0.00607712 	-0.0114369 	4.63308e-13 	-1.73127e-13 	6.72656e-14 	1.75137e-13 	-3.62447e-14 	1.33369e-13 	5.44592e-08 	4.5447e-08 	-5.87659e-08 	3.79372e-08 	-4.90427e-08 	6.36223e-08
0.2    0.2    0.2    0.2    4.32 	0.157625 	0.0129724 	0.00140301 	5.15167e-13 	-1.5021e-13 	9.65149e-14 	1.56333e-13 	-4.27131e-14 	1.60065e-13 	1.33753e-07 	-1.06087e-07 	-1.34378e-07 	8.41523e-08 	1.06618e-07 	1.35165e-07
0.2    0.2    0.2    0.2    4.41 	0.157625 	0.0129724 	0.00140301 	5.15167e-13 	-1.5021e-13 	9.65149e-14 	1.56333e-13 	-4.27131e-14 	1.60065e-13 	1.33753e-07 	-1.06087e-07 	-1.34378e-07 	8.41523e-08 	1.06618e-07 	1.35165e-07
0.2    0.2    0.2    0.2    4.5 	0.157625 	0.0129724 	0.00140301 	5.15167e-13 	-1.5021e-13 	9.65149e-14 	1.56333e-13 	-4.27131e-14 	1.60065e-13 	1.33753e-07 	-1.06087e-07 	-1.34378e-07 	8.41523e-08 	1.06618e-07 	1.35165e-07
