0.2    0.2    0.2    0.2    0.2    0 	0.0928261 	0.0341082 	-0.014325 	4.79248e-13 	-2.16903e-13 	7.12398e-14 	2.37245e-13 	-3.45703e-14 	1.67857e-13 	1.08099e-07 	6.54825e-08 	-8.03316e-08 	4.11562e-08 	-4.95644e-08 	6.03122e-08
0.2    0.2    0.2    0.2    0.2    0.09 	0.0928261 	0.0341082 	-0.014325 	4.79248e-13 	-2.16903e-13 	7.12398e-14 	2.37245e-13 	-3.45703e-14 	1.67857e-13 	1.08099e-07 	6.54825e-08 	-8.03316e-08 	4.11562e-08 	-4.95644e-08 	6.03122e-08
0.2    0.2    0.2    0.2    0.2    0.18 	0.0928261 	0.0341082 	-0.014325 	4.79248e-13 	-2.16903e-13 	7.12398e-14 	2.37245e-13 	-3.45703e-14 	1.67857e-13 	1.08099e-07 	6.54825e-08 	-8.03316e-08 	4.11562e-08 	-4.95644e-08 	6.03122e-08
0.2    0.2    0.2    0.2    0.2    0.27 	-0.00251881 	0.0576886 	0.0230661 	4.84806e-13 	-2.08842e-13 	-3.68587e-14 	3.2017e-13 	3.33651e-14 	1.53997e-13 	3.76244e-07 	1.15114e-07 	2.32514e-07 	5.95638e-08 	8.41671e-08 	1.50706e-07
0.2    0.2    0.2    0.2    0.2    0.36 	-0.00251881 	0.0576886 	0.0230661 	4.84806e-13 	-2.08842e-13 	-3.68587e-14 	3.2017e-13 	3.33651e-14 	1.53997e-13 	3.76244e-07 	1.15114e-07 	2.32514e-07 	5.95638e-08 	8.41671e-08 	1.50706e-07
0.2    0.2    0.2    0.2    0.2    0.45 	0.154639 	0.013094 	0.0415717 	8.2743e-13 	-1.54125e-13 	2.85187e-13 	1.3965e-13 	4.06888e-14 	3.05363e-13 	6.10594e-07 	-1.70134e-07 	-4.98668e-07 	5.0775e-08 	1.40426e-07 	4.07916e-07
0.2    0.2    0.2    0.2    0.2    0.54 	0.154639 	0.013094 	0.0415717 	8.2743e-13 	-1.54125e-13 	2.85187e-13 	1.3965e-13 	4.06888e-14 	3.05363e-13 	6.10594e-07 	-1.70134e-07 	-4.98668e-07 	5.0775e-08 	1.40426e-07 	4.07916e-07
0.2    0.2    0.2    0.2    0.2    0.63 	0.0864725 	-0.00208691 	-0.00677835 	7.25949e-13 	-1.4258e-13 	1.06528e-13 	1.5594e-13 	-7.83335e-15 	2.5611e-13 	2.3904e-07 	1.09457e-09 	1.09334e-08 	1.9984e-10 	1.46532e-10 	5.66223e-10
0.2    0.2    0.2    0.2    0.2    0.72 	0.0864725 	-0.00208691 	-0.00677835 	7.25949e-13 	-1.4258e-13 	1.06528e-13 	1.5594e-13 	-7.83335e-15 	2.5611e-13 	2.3904e-07 	1.09457e-09 	1.09334e-08 	1.9984e-10 	1.46532e-10 	5.66223e-10
0.2    0.2    0.2    0.2    0.2    0.81 	0.0635274 	0.0204758 	0.021921 	6.57467e-13 	-2.10122e-13 	6.97842e-15 	2.25379e-13 	4.63961e-14 	1.94957e-13 	7.42586e-09 	-4.11591e-08 	2.85461e-08 	3.12518e-07 	-2.62652e-07 	2.39017e-07
0.2    0.2    0.2    0.2    0.2    0.9 	0.0635274 	0.0204758 	0.021921 	6.57467e-13 	-2.10122e-13 	6.97842e-15 	2.25379e-13 	4.63961e-14 	1.94957e-13 	7.42586e-09 	-4.11591e-08 	2.85461e-08 	3.12518e-07 	-2.62652e-07 	2.39017e-07
0.2    0.2    0.2    0.2    0.2    0.99 	0.1058 	-0.0188341 	0.0140907 	5.72802e-13 	-1.21031e-13 	1.56258e-13 	1.97951e-13 	4.95956e-15 	2.20174e-13 	6.89603e-07 	-2.304e-07 	-8.40092e-08 	8.44922e-08 	2.85259e-08 	1.02726e-08
0.2    0.2    0.2    0.2    0.2    1.08 	0.1058 	-0.0188341 	0.0140907 	5.72802e-13 	-1.21031e-13 	1.56258e-13 	1.97951e-13 	4.95956e-15 	2.20174e-13 	6.89603e-07 	-2.304e-07 	-8.40092e-08 	8.44922e-08 	2.85259e-08 	1.02726e-08
0.2    0.2    0.2    0.2    0.2    1.17 	0.1058 	-0.0188341 	0.0140907 	5.72802e-13 	-1.21031e-13 	1.56258e-13 	1.97951e-13 	4.95956e-15 	2.20174e-13 	6.89603e-07 	-2.304e-07 	-8.40092e-08 	8.44922e-08 	2.85259e-08 	1.02726e-08
0.2    0.2    0.2    0.2    0.2    1.26 	0.0539491 	-0.0149496 	-0.0432436 	4.46926e-13 	-2.19413e-13 	1.59442e-14 	3.2336e-13 	-1.24443e-14 	1.82858e-13 	1.38319e-07 	1.35058e-07 	2.82621e-07 	1.3319e-07 	2.77392e-07 	5.79072e-07
0.2    0.2    0.2    0.2    0.2    1.35 	0.0539491 	-0.0149496 	-0.0432436 	4.46926e-13 	-2.19413e-13 	1.59442e-14 	3.2336e-13 	-1.24443e-14 	1.82858e-13 	1.38319e-07 	1.35058e-07 	2.82621e-07 	1.3319e-07 	2.77392e-07 	5.79072e-07
0.2    0.2    0.2    0.2    0.2    1.44 	0.00277515 	0.0243395 	0.0147399 	5.6548e-13 	-2.78992e-13 	-2.06936e-14 	2.98893e-13 	3.23855e-14 	2.1945e-13 	7.78761e-08 	-1.04148e-07 	7.86488e-08 	1.43004e-07 	-1.12884e-07 	9.54876e-08
0.2    0.2    0.2    0.2    0.2    1.53 	0.00277515 	0.0243395 	0.0147399 	5.6548e-13 	-2.78992e-13 	-2.06936e-14 	2.98893e-13 	3.23855e-14 	2.1945e-13 	7.78761e-08 	-1.04148e-07 	7.86488e-08 	1.43004e-07 	-1.12884e-07 	9.54876e-08
0.2    0.2    0.2    0.2    0.2    1.62 	0.0190841 	0.0113206 	-0.02938 	6.87907e-13 	-2.05317e-13 	-2.48741e-14 	1.99839e-13 	-6.22078e-14 	1.90261e-13 	1.88815e-07 	-2.81626e-08 	1.05729e-07 	4.92653e-09 	-1.65152e-08 	5.99741e-08
0.2    0.2    0.2    0.2    0.2    1.71 	0.0190841 	0.0113206 	-0.02938 	6.87907e-13 	-2.05317e-13 	-2.48741e-14 	1.99839e-13 	-6.22078e-14 	1.90261e-13 	1.88815e-07 	-2.81626e-08 	1.05729e-07 	4.92653e-09 	-1.65152e-08 	5.99741e-08
0.2    0.2    0.2    0.2    0.2    1.8 	0.0898435 	0.0320326 	-0.0188854 	1.31217e-12 	-3.58429e-13 	-3.42517e-13 	2.26796e-13 	3.81177e-14 	1.41599e-13 	3.08879e-08 	7.47065e-08 	-1.02366e-07 	1.95612e-07 	-2.62603e-07 	3.54438e-07
0.2    0.2    0.2    0.2    0.2    1.89 	0.0898435 	0.0320326 	-0.0188854 	1.31217e-12 	-3.58429e-13 	-3.42517e-13 	2.26796e-13 	3.81177e-14 	1.41599e-13 	3.08879e-08 	7.47065e-08 	-1.02366e-07 	1.95612e-07 	-2.62603e-07 	3.54438e-07
0.2    0.2    0.2    0.2    0.2    1.98 	0.0951361 	-0.000759585 	0.0231806 	1.3386e-12 	-1.75233e-13 	-1.15482e-13 	2.24759e-13 	-4.03366e-15 	1.13059e-13 	2.11194e-07 	5.91365e-07 	-2.18177e-07 	1.79209e-06 	-6.79953e-07 	2.60388e-07
0.2    0.2    0.2    0.2    0.2    2.07 	0.0951361 	-0.000759585 	0.0231806 	1.3386e-12 	-1.75233e-13 	-1.15482e-13 	2.24759e-13 	-4.03366e-15 	1.13059e-13 	2.11194e-07 	5.91365e-07 	-2.18177e-07 	1.79209e-06 	-6.79953e-07 	2.60388e-07
0.2    0.2    0.2    0.2    0.2    2.16 	0.0233726 	0.0278571 	0.0349839 	5.61848e-13 	-9.99688e-14 	-8.34937e-14 	1.4908e-13 	-1.32673e-14 	1.3668e-13 	1.98999e-06 	-3.57999e-06 	4.80303e-08 	6.442e-06 	-8.47483e-08 	2.94661e-09
0.2    0.2    0.2    0.2    0.2    2.25 	0.0233726 	0.0278571 	0.0349839 	5.61848e-13 	-9.99688e-14 	-8.34937e-14 	1.4908e-13 	-1.32673e-14 	1.3668e-13 	1.98999e-06 	-3.57999e-06 	4.80303e-08 	6.442e-06 	-8.47483e-08 	2.94661e-09
0.2    0.2    0.2    0.2    0.2    2.34 	0.0233726 	0.0278571 	0.0349839 	5.61848e-13 	-9.99688e-14 	-8.34937e-14 	1.4908e-13 	-1.32673e-14 	1.3668e-13 	1.98999e-06 	-3.57999e-06 	4.80303e-08 	6.442e-06 	-8.47483e-08 	2.94661e-09
0.2    0.2    0.2    0.2    0.2    2.43 	0.0485434 	0.0416203 	0.0279666 	3.9788e-13 	-1.42123e-13 	-6.85844e-15 	1.55304e-13 	-1.73146e-14 	2.65276e-13 	3.53566e-07 	4.70362e-07 	2.82073e-07 	6.5587e-07 	3.85656e-07 	2.28632e-07
0.2    0.2    0.2    0.2    0.2    2.52 	0.0485434 	0.0416203 	0.0279666 	3.9788e-13 	-1.42123e-13 	-6.85844e-15 	1.55304e-13 	-1.73146e-14 	2.65276e-13 	3.53566e-07 	4.70362e-07 	2.82073e-07 	6.5587e-07 	3.85656e-07 	2.28632e-07
0.2    0.2    0.2    0.2    0.2    2.61 	0.101028 	-0.0236812 	-0.0409163 	5.33432e-13 	-1.59243e-13 	-3.97213e-14 	2.08118e-13 	-5.88143e-15 	2.00043e-13 	1.18351e-06 	-6.13682e-07 	1.08668e-07 	3.20148e-07 	-5.59078e-08 	1.01061e-08
0.2    0.2    0.2    0.2    0.2    2.7 	0.101028 	-0.0236812 	-0.0409163 	5.33432e-13 	-1.59243e-13 	-3.97213e-14 	2.08118e-13 	-5.88143e-15 	2.00043e-13 	1.18351e-06 	-6.13682e-07 	1.08668e-07 	3.20148e-07 	-5.59078e-08 	1.01061e-08
0.2    0.2    0.2    0.2    0.2    2.79 	0.121167 	-0.0175835 	-0.0119408 	7.16295e-13 	-2.82365e-13 	1.24715e-15 	3.43843e-13 	-8.17084e-14 	2.22934e-13 	8.36113e-07 	-9.74722e-07 	-7.52412e-07 	1.1375e-06 	8.78969e-07 	6.8022e-07
0.2    0.2    0.2    0.2    0.2    2.88 	0.121167 	-0.0175835 	-0.0119408 	7.16295e-13 	-2.82365e-13 	1.24715e-15 	3.43843e-13 	-8.17084e-14 	2.22934e-13 	8.36113e-07 	-9.74722e-07 	-7.52412e-07 	1.1375e-06 	8.78969e-07 	6.8022e-07
0.2    0.2    0.2    0.2    0.2    2.97 	0.108333 	0.0309652 	-0.00967484 	8.54133e-13 	-2.80707e-13 	8.44293e-14 	2.97081e-13 	-4.23151e-14 	1.85405e-13 	2.27984e-07 	-3.24419e-07 	-3.08591e-07 	4.70609e-07 	4.54421e-07 	4.4382e-07
0.2    0.2    0.2    0.2    0.2    3.06 	0.108333 	0.0309652 	-0.00967484 	8.54133e-13 	-2.80707e-13 	8.44293e-14 	2.97081e-13 	-4.23151e-14 	1.85405e-13 	2.27984e-07 	-3.24419e-07 	-3.08591e-07 	4.70609e-07 	4.54421e-07 	4.4382e-07
0.2    0.2    0.2    0.2    0.2    3.15 	0.132499 	0.0610272 	0.000405582 	6.16024e-13 	-1.65808e-13 	6.26966e-14 	1.83657e-13 	-3.8234e-14 	2.09023e-13 	1.09022e-06 	2.5682e-07 	5.95981e-08 	6.85845e-08 	3.24687e-08 	4.6508e-08
0.2    0.2    0.2    0.2    0.2    3.24 	0.132499 	0.0610272 	0.000405582 	6.16024e-13 	-1.65808e-13 	6.26966e-14 	1.83657e-13 	-3.8234e-14 	2.09023e-13 	1.09022e-06 	2.5682e-07 	5.95981e-08 	6.85845e-08 	3.24687e-08 	4.6508e-08
0.2    0.2    0.2    0.2    0.2    3.33 	0.037023 	-0.0269465 	0.0147325 	4.89282e-13 	-2.4751e-13 	9.5118e-14 	2.47423e-13 	-5.2171e-14 	2.32819e-13 	3.10401e-07 	-2.80976e-07 	2.01176e-07 	2.55331e-07 	-1.81255e-07 	1.325e-07
0.2    0.2    0.2    0.2    0.2    3.42 	0.037023 	-0.0269465 	0.0147325 	4.89282e-13 	-2.4751e-13 	9.5118e-14 	2.47423e-13 	-5.2171e-14 	2.32819e-13 	3.10401e-07 	-2.80976e-07 	2.01176e-07 	2.55331e-07 	-1.81255e-07 	1.325e-07
0.2    0.2    0.2    0.2    0.2    3.51 	0.037023 	-0.0269465 	0.0147325 	4.89282e-13 	-2.4751e-13 	9.5118e-14 	2.47423e-13 	-5.2171e-14 	2.32819e-13 	3.10401e-07 	-2.80976e-07 	2.01176e-07 	2.55331e-07 	-1.81255e-07 	1.325e-07
0.2    0.2    0.2    0.2    0.2    3.6 	0.0884232 	-0.00879233 	-0.0255456 	1.00882e-12 	-6.30605e-13 	2.75985e-13 	5.29572e-13 	-1.39607e-13 	1.95198e-13 	4.90233e-08 	1.26579e-07 	-3.4516e-09 	3.43522e-07 	-2.2853e-08 	1.20093e-08
0.2    0.2    0.2    0.2    0.2    3.69 	0.0884232 	-0.00879233 	-0.0255456 	1.00882e-12 	-6.30605e-13 	2.75985e-13 	5.29572e-13 	-1.39607e-13 	1.95198e-13 	4.90233e-08 	1.26579e-07 	-3.4516e-09 	3.43522e-07 	-2.2853e-08 	1.20093e-08
0.2    0.2    0.2    0.2    0.2    3.78 	0.0903559 	-0.00708088 	0.0453957 	4.77532e-13 	-2.28891e-13 	6.30156e-14 	2.46416e-13 	1.5588e-14 	1.83644e-13 	4.21438e-08 	7.94855e-08 	1.82246e-08 	1.5171e-07 	3.62652e-08 	9.92546e-09
0.2    0.2    0.2    0.2    0.2    3.87 	0.0903559 	-0.00708088 	0.0453957 	4.77532e-13 	-2.28891e-13 	6.30156e-14 	2.46416e-13 	1.5588e-14 	1.83644e-13 	4.21438e-08 	7.94855e-08 	1.82246e-08 	1.5171e-07 	3.62652e-08 	9.92546e-09
0.2    0.2    0.2    0.2    0.2    3.96 	0.112983 	0.0261345 	0.00794207 	4.68189e-13 	-1.86069e-13 	5.02536e-14 	1.38157e-13 	-5.54394e-17 	1.73072e-13 	3.03951e-08 	2.42859e-08 	-1.59564e-08 	5.00455e-08 	-2.51242e-08 	1.34147e-08
0.2    0.2    0.2    0.2    0.2    4.05 	0.112983 	0.0261345 	0.00794207 	4.68189e-13 	-1.86069e-13 	5.02536e-14 	1.38157e-13 	-5.54394e-17 	1.73072e-13 	3.03951e-08 	2.42859e-08 	-1.59564e-08 	5.00455e-08 	-2.51242e-08 	1.34147e-08
0.2    0.2    0.2    0.2    0.2    4.14 	0.130548 	-0.012311 	-0.00549601 	6.14363e-13 	-3.51055e-13 	-1.37301e-14 	3.00415e-13 	5.16928e-14 	1.75333e-13 	2.4087e-07 	-3.24495e-07 	1.63651e-07 	4.53964e-07 	-2.15401e-07 	1.12778e-07
0.2    0.2    0.2    0.2    0.2    4.23 	0.130548 	-0.012311 	-0.00549601 	6.14363e-13 	-3.51055e-13 	-1.37301e-14 	3.00415e-13 	5.16928e-14 	1.75333e-13 	2.4087e-07 	-3.24495e-07 	1.63651e-07 	4.53964e-07 	-2.15401e-07 	1.12778e-07
0.2    0.2    0.2    0.2    0.2    4.32 	-0.00119563 	0.0248782 	-0.00522919 	4.31936e-13 	-2.04863e-13 	-4.70856e-14 	2.20594e-13 	3.68504e-14 	2.11781e-13 	2.93414e-07 	-3.98987e-07 	9.40524e-08 	5.51055e-07 	-1.28539e-07 	3.06618e-08
0.2    0.2    0.2    0.2    0.2    4.41 	-0.00119563 	0.0248782 	-0.00522919 	4.31936e-13 	-2.04863e-13 	-4.70856e-14 	2.20594e-13 	3.68504e-14 	2.11781e-13 	2.93414e-07 	-3.98987e-07 	9.40524e-08 	5.51055e-07 	-1.28539e-07 	3.06618e-08
0.2    0.2    0.2    0.2    0.2    4.5 	-0.00119563 	0.0248782 	-0.00522919 	4.31936e-13 	-2.04863e-13 	-4.70856e-14 	2.20594e-13 	3.68504e-14 	2.11781e-13 	2.93414e-07 	-3.98987e-07 	9.40524e-08 	5.51055e-07 	-1.28539e-07 	3.06618e-08
