0.01    0 	0.152695 	0.0059723 	0.000262718 	4.48693e-13 	-1.18286e-13 	1.10932e-13 	1.18366e-13 	-3.6913e-14 	1.83198e-13 	1.18739e-10 	-1.80789e-11 	-2.15584e-10 	2.75266e-12 	3.28243e-11 	3.91416e-10
0.01    0.09 	0.152695 	0.0059723 	0.000262718 	4.48693e-13 	-1.18286e-13 	1.10932e-13 	1.18366e-13 	-3.6913e-14 	1.83198e-13 	1.18739e-10 	-1.80789e-11 	-2.15584e-10 	2.75266e-12 	3.28243e-11 	3.91416e-10
0.01    0.18 	0.152695 	0.0059723 	0.000262718 	4.48693e-13 	-1.18286e-13 	1.10932e-13 	1.18366e-13 	-3.6913e-14 	1.83198e-13 	1.18739e-10 	-1.80789e-11 	-2.15584e-10 	2.75266e-12 	3.28243e-11 	3.91416e-10
0.01    0.27 	0.173278 	-0.00188439 	-0.00865897 	3.94154e-13 	-9.96777e-14 	3.54548e-14 	1.39326e-13 	-1.3771e-15 	1.20176e-13 	1.03386e-10 	4.8389e-11 	1.32279e-10 	2.26481e-11 	6.19121e-11 	1.69246e-10
0.01    0.36 	0.173278 	-0.00188439 	-0.00865897 	3.94154e-13 	-9.96777e-14 	3.54548e-14 	1.39326e-13 	-1.3771e-15 	1.20176e-13 	1.03386e-10 	4.8389e-11 	1.32279e-10 	2.26481e-11 	6.19121e-11 	1.69246e-10
0.01    0.45 	0.150709 	0.00313392 	0.0108291 	3.19315e-13 	-5.14611e-14 	5.55735e-14 	1.33224e-13 	-1.09288e-14 	1.29392e-13 	1.33739e-11 	-5.74014e-13 	6.3827e-11 	2.46369e-14 	-2.73947e-12 	3.04613e-10
0.01    0.54 	0.150709 	0.00313392 	0.0108291 	3.19315e-13 	-5.14611e-14 	5.55735e-14 	1.33224e-13 	-1.09288e-14 	1.29392e-13 	1.33739e-11 	-5.74014e-13 	6.3827e-11 	2.46369e-14 	-2.73947e-12 	3.04613e-10
0.01    0.63 	0.145482 	-0.0156358 	-0.00854584 	4.2528e-13 	-1.32412e-13 	4.79206e-14 	2.11946e-13 	-2.10743e-14 	1.32081e-13 	9.67048e-10 	-2.27119e-10 	-4.10254e-10 	5.33407e-11 	9.63515e-11 	1.74043e-10
0.01    0.72 	0.145482 	-0.0156358 	-0.00854584 	4.2528e-13 	-1.32412e-13 	4.79206e-14 	2.11946e-13 	-2.10743e-14 	1.32081e-13 	9.67048e-10 	-2.27119e-10 	-4.10254e-10 	5.33407e-11 	9.63515e-11 	1.74043e-10
0.01    0.81 	0.140289 	-0.00614825 	-0.00143345 	3.03237e-13 	-8.14749e-14 	4.89478e-14 	1.92837e-13 	-6.59336e-14 	1.13534e-13 	2.2659e-14 	-1.92928e-12 	1.58786e-12 	1.64265e-10 	-1.35195e-10 	1.11269e-10
0.01    0.9 	0.140289 	-0.00614825 	-0.00143345 	3.03237e-13 	-8.14749e-14 	4.89478e-14 	1.92837e-13 	-6.59336e-14 	1.13534e-13 	2.2659e-14 	-1.92928e-12 	1.58786e-12 	1.64265e-10 	-1.35195e-10 	1.11269e-10
0.01    0.99 	0.138345 	-0.017959 	0.00228353 	2.87242e-13 	-8.37261e-14 	2.30382e-14 	1.26622e-13 	-1.55643e-14 	1.25264e-13 	6.5395e-10 	-1.71615e-10 	-3.85124e-10 	4.50364e-11 	1.01067e-10 	2.26807e-10
0.01    1.08 	0.138345 	-0.017959 	0.00228353 	2.87242e-13 	-8.37261e-14 	2.30382e-14 	1.26622e-13 	-1.55643e-14 	1.25264e-13 	6.5395e-10 	-1.71615e-10 	-3.85124e-10 	4.50364e-11 	1.01067e-10 	2.26807e-10
0.01    1.17 	0.138345 	-0.017959 	0.00228353 	2.87242e-13 	-8.37261e-14 	2.30382e-14 	1.26622e-13 	-1.55643e-14 	1.25264e-13 	6.5395e-10 	-1.71615e-10 	-3.85124e-10 	4.50364e-11 	1.01067e-10 	2.26807e-10
0.01    1.26 	0.139852 	0.00235247 	0.0106994 	2.36913e-13 	-5.58863e-14 	2.00116e-14 	1.0343e-13 	-2.126e-14 	1.73254e-13 	5.9874e-13 	-6.71659e-12 	-3.81634e-12 	7.53464e-11 	4.28115e-11 	2.43253e-11
0.01    1.35 	0.139852 	0.00235247 	0.0106994 	2.36913e-13 	-5.58863e-14 	2.00116e-14 	1.0343e-13 	-2.126e-14 	1.73254e-13 	5.9874e-13 	-6.71659e-12 	-3.81634e-12 	7.53464e-11 	4.28115e-11 	2.43253e-11
0.01    1.44 	0.135525 	-0.00652225 	0.00307023 	3.08044e-13 	-1.29757e-13 	7.67467e-14 	1.61817e-13 	-6.72284e-14 	1.44608e-13 	2.74221e-12 	-3.63555e-11 	5.89321e-12 	4.81991e-10 	-7.81306e-11 	1.2665e-11
0.01    1.53 	0.135525 	-0.00652225 	0.00307023 	3.08044e-13 	-1.29757e-13 	7.67467e-14 	1.61817e-13 	-6.72284e-14 	1.44608e-13 	2.74221e-12 	-3.63555e-11 	5.89321e-12 	4.81991e-10 	-7.81306e-11 	1.2665e-11
0.01    1.62 	0.134337 	7.97271e-05 	0.0137096 	3.07758e-13 	-2.54966e-14 	1.11218e-14 	1.93424e-13 	-1.12289e-14 	8.40583e-14 	1.43548e-09 	1.16214e-09 	9.30929e-11 	9.40847e-10 	7.53664e-11 	6.03722e-12
0.01    1.71 	0.134337 	7.97271e-05 	0.0137096 	3.07758e-13 	-2.54966e-14 	1.11218e-14 	1.93424e-13 	-1.12289e-14 	8.40583e-14 	1.43548e-09 	1.16214e-09 	9.30929e-11 	9.40847e-10 	7.53664e-11 	6.03722e-12
0.01    1.8 	0.129806 	0.0075233 	0.0267884 	2.95582e-13 	-4.78068e-14 	-2.06996e-17 	1.22589e-13 	-2.36857e-14 	1.30751e-13 	5.12768e-11 	-4.2132e-11 	-2.05701e-10 	3.4618e-11 	1.69016e-10 	8.2519e-10
0.01    1.89 	0.129806 	0.0075233 	0.0267884 	2.95582e-13 	-4.78068e-14 	-2.06996e-17 	1.22589e-13 	-2.36857e-14 	1.30751e-13 	5.12768e-11 	-4.2132e-11 	-2.05701e-10 	3.4618e-11 	1.69016e-10 	8.2519e-10
0.01    1.98 	0.159485 	-0.0104734 	0.00339473 	2.88593e-13 	-3.52916e-14 	-6.22577e-14 	7.77343e-14 	-9.7872e-15 	2.06991e-13 	3.62717e-10 	-2.95593e-11 	-1.56878e-10 	2.40891e-12 	1.27846e-11 	6.78508e-11
0.01    2.07 	0.159485 	-0.0104734 	0.00339473 	2.88593e-13 	-3.52916e-14 	-6.22577e-14 	7.77343e-14 	-9.7872e-15 	2.06991e-13 	3.62717e-10 	-2.95593e-11 	-1.56878e-10 	2.40891e-12 	1.27846e-11 	6.78508e-11
0.01    2.16 	0.155604 	-0.00145789 	-0.00203606 	2.39055e-13 	-3.81814e-14 	-2.52279e-14 	7.91784e-14 	1.06098e-14 	1.45582e-13 	1.15214e-11 	3.56913e-12 	-6.36771e-11 	1.10566e-12 	-1.97261e-11 	3.51934e-10
0.01    2.25 	0.155604 	-0.00145789 	-0.00203606 	2.39055e-13 	-3.81814e-14 	-2.52279e-14 	7.91784e-14 	1.06098e-14 	1.45582e-13 	1.15214e-11 	3.56913e-12 	-6.36771e-11 	1.10566e-12 	-1.97261e-11 	3.51934e-10
0.01    2.34 	0.155604 	-0.00145789 	-0.00203606 	2.39055e-13 	-3.81814e-14 	-2.52279e-14 	7.91784e-14 	1.06098e-14 	1.45582e-13 	1.15214e-11 	3.56913e-12 	-6.36771e-11 	1.10566e-12 	-1.97261e-11 	3.51934e-10
0.01    2.43 	0.16174 	-0.00506331 	-0.00743246 	2.54348e-13 	-2.85962e-14 	-2.69633e-14 	8.99914e-14 	5.53393e-15 	9.9976e-14 	2.05214e-10 	-1.48526e-10 	2.02445e-12 	1.07498e-10 	-1.46522e-12 	1.99714e-14
0.01    2.52 	0.16174 	-0.00506331 	-0.00743246 	2.54348e-13 	-2.85962e-14 	-2.69633e-14 	8.99914e-14 	5.53393e-15 	9.9976e-14 	2.05214e-10 	-1.48526e-10 	2.02445e-12 	1.07498e-10 	-1.46522e-12 	1.99714e-14
0.01    2.61 	0.15934 	-0.0174947 	0.00396338 	2.71429e-13 	-4.83147e-14 	-3.11432e-14 	9.25855e-14 	2.80434e-15 	1.02832e-13 	6.13881e-11 	-4.87155e-11 	-4.17979e-11 	3.8659e-11 	3.31694e-11 	2.84594e-11
0.01    2.7 	0.15934 	-0.0174947 	0.00396338 	2.71429e-13 	-4.83147e-14 	-3.11432e-14 	9.25855e-14 	2.80434e-15 	1.02832e-13 	6.13881e-11 	-4.87155e-11 	-4.17979e-11 	3.8659e-11 	3.31694e-11 	2.84594e-11
0.01    2.79 	0.151898 	0.00738264 	0.000972713 	2.49024e-13 	-2.3116e-14 	-4.54503e-14 	9.54133e-14 	-1.06487e-14 	1.11331e-13 	2.93451e-10 	-1.26387e-10 	-2.25708e-10 	5.44336e-11 	9.72102e-11 	1.73603e-10
0.01    2.88 	0.151898 	0.00738264 	0.000972713 	2.49024e-13 	-2.3116e-14 	-4.54503e-14 	9.54133e-14 	-1.06487e-14 	1.11331e-13 	2.93451e-10 	-1.26387e-10 	-2.25708e-10 	5.44336e-11 	9.72102e-11 	1.73603e-10
0.01    2.97 	0.16711 	0.00472877 	0.0046539 	3.05939e-13 	3.02273e-14 	-4.1388e-14 	7.26752e-14 	2.69603e-14 	1.4818e-13 	4.34042e-12 	1.95742e-11 	-9.36218e-13 	8.82752e-11 	-4.22212e-12 	2.0194e-13
0.01    3.06 	0.16711 	0.00472877 	0.0046539 	3.05939e-13 	3.02273e-14 	-4.1388e-14 	7.26752e-14 	2.69603e-14 	1.4818e-13 	4.34042e-12 	1.95742e-11 	-9.36218e-13 	8.82752e-11 	-4.22212e-12 	2.0194e-13
0.01    3.15 	0.152706 	-0.022118 	-0.00549556 	2.50639e-13 	3.83482e-14 	2.88868e-15 	7.18805e-14 	-2.21746e-14 	1.29887e-13 	1.27982e-11 	-5.79582e-11 	4.23374e-12 	2.6247e-10 	-1.9173e-11 	1.40055e-12
0.01    3.24 	0.152706 	-0.022118 	-0.00549556 	2.50639e-13 	3.83482e-14 	2.88868e-15 	7.18805e-14 	-2.21746e-14 	1.29887e-13 	1.27982e-11 	-5.79582e-11 	4.23374e-12 	2.6247e-10 	-1.9173e-11 	1.40055e-12
0.01    3.33 	0.182816 	-0.00765243 	0.00481171 	2.74871e-13 	-1.94922e-15 	3.44019e-14 	1.1282e-13 	-3.24742e-14 	1.03734e-13 	4.59829e-11 	9.60692e-11 	-7.27718e-11 	2.00711e-10 	-1.52037e-10 	1.15167e-10
0.01    3.42 	0.182816 	-0.00765243 	0.00481171 	2.74871e-13 	-1.94922e-15 	3.44019e-14 	1.1282e-13 	-3.24742e-14 	1.03734e-13 	4.59829e-11 	9.60692e-11 	-7.27718e-11 	2.00711e-10 	-1.52037e-10 	1.15167e-10
0.01    3.51 	0.182816 	-0.00765243 	0.00481171 	2.74871e-13 	-1.94922e-15 	3.44019e-14 	1.1282e-13 	-3.24742e-14 	1.03734e-13 	4.59829e-11 	9.60692e-11 	-7.27718e-11 	2.00711e-10 	-1.52037e-10 	1.15167e-10
0.01    3.6 	0.144616 	0.00163356 	0.00429363 	3.22712e-13 	-9.05239e-14 	5.81147e-14 	1.00267e-13 	-2.59554e-14 	1.46852e-13 	1.93089e-10 	1.92709e-11 	4.66698e-11 	1.9233e-12 	4.65779e-12 	1.12801e-11
0.01    3.69 	0.144616 	0.00163356 	0.00429363 	3.22712e-13 	-9.05239e-14 	5.81147e-14 	1.00267e-13 	-2.59554e-14 	1.46852e-13 	1.93089e-10 	1.92709e-11 	4.66698e-11 	1.9233e-12 	4.65779e-12 	1.12801e-11
0.01    3.78 	0.165331 	-0.00322228 	0.00556111 	2.38372e-13 	-2.77815e-14 	3.2749e-14 	6.6933e-14 	1.02005e-15 	1.27893e-13 	1.10751e-10 	3.35171e-11 	-2.33628e-11 	1.01434e-11 	-7.07036e-12 	4.92834e-12
0.01    3.87 	0.165331 	-0.00322228 	0.00556111 	2.38372e-13 	-2.77815e-14 	3.2749e-14 	6.6933e-14 	1.02005e-15 	1.27893e-13 	1.10751e-10 	3.35171e-11 	-2.33628e-11 	1.01434e-11 	-7.07036e-12 	4.92834e-12
0.01    3.96 	0.162473 	-0.00492953 	-7.868e-05 	2.55542e-13 	-9.26867e-15 	4.68007e-14 	7.3128e-14 	-3.22701e-14 	1.29885e-13 	1.82511e-10 	-7.83592e-11 	3.51626e-11 	3.36428e-11 	-1.50967e-11 	6.77446e-12
0.01    4.05 	0.162473 	-0.00492953 	-7.868e-05 	2.55542e-13 	-9.26867e-15 	4.68007e-14 	7.3128e-14 	-3.22701e-14 	1.29885e-13 	1.82511e-10 	-7.83592e-11 	3.51626e-11 	3.36428e-11 	-1.50967e-11 	6.77446e-12
0.01    4.14 	0.175463 	-0.00543814 	-0.0122669 	4.67748e-13 	-1.74977e-13 	6.37943e-14 	1.76694e-13 	-3.41347e-14 	1.32162e-13 	1.71505e-10 	1.16656e-10 	-1.29971e-10 	7.93479e-11 	-8.8405e-11 	9.8496e-11
0.01    4.23 	0.175463 	-0.00543814 	-0.0122669 	4.67748e-13 	-1.74977e-13 	6.37943e-14 	1.76694e-13 	-3.41347e-14 	1.32162e-13 	1.71505e-10 	1.16656e-10 	-1.29971e-10 	7.93479e-11 	-8.8405e-11 	9.8496e-11
0.01    4.32 	0.156404 	0.0139339 	0.00260637 	5.0204e-13 	-1.44913e-13 	9.64688e-14 	1.53474e-13 	-4.26932e-14 	1.58555e-13 	3.71167e-10 	-2.66365e-10 	-2.84796e-10 	1.91154e-10 	2.04381e-10 	2.18523e-10
0.01    4.41 	0.156404 	0.0139339 	0.00260637 	5.0204e-13 	-1.44913e-13 	9.64688e-14 	1.53474e-13 	-4.26932e-14 	1.58555e-13 	3.71167e-10 	-2.66365e-10 	-2.84796e-10 	1.91154e-10 	2.04381e-10 	2.18523e-10
0.01    4.5 	0.156404 	0.0139339 	0.00260637 	5.0204e-13 	-1.44913e-13 	9.64688e-14 	1.53474e-13 	-4.26932e-14 	1.58555e-13 	3.71167e-10 	-2.66365e-10 	-2.84796e-10 	1.91154e-10 	2.04381e-10 	2.18523e-10
