0.1    0.1    0.1    0.1    0.1    0 	0.152358 	0.00606299 	0.000983637 	4.47806e-13 	-1.1826e-13 	1.1155e-13 	1.1832e-13 	-3.71263e-14 	1.82938e-13 	1.17762e-08 	-3.06771e-09 	-2.49655e-08 	8.31087e-10 	6.57725e-09 	5.30972e-08
0.1    0.1    0.1    0.1    0.1    0.09 	0.152358 	0.00606299 	0.000983637 	4.47806e-13 	-1.1826e-13 	1.1155e-13 	1.1832e-13 	-3.71263e-14 	1.82938e-13 	1.17762e-08 	-3.06771e-09 	-2.49655e-08 	8.31087e-10 	6.57725e-09 	5.30972e-08
0.1    0.1    0.1    0.1    0.1    0.18 	0.152358 	0.00606299 	0.000983637 	4.47806e-13 	-1.1826e-13 	1.1155e-13 	1.1832e-13 	-3.71263e-14 	1.82938e-13 	1.17762e-08 	-3.06771e-09 	-2.49655e-08 	8.31087e-10 	6.57725e-09 	5.30972e-08
0.1    0.1    0.1    0.1    0.1    0.27 	0.173686 	-0.00179924 	-0.00817527 	3.93378e-13 	-9.8937e-14 	3.6366e-14 	1.38685e-13 	-1.50818e-15 	1.2074e-13 	1.70524e-08 	3.54695e-09 	2.02164e-08 	7.87621e-10 	4.22904e-09 	2.3979e-08
0.1    0.1    0.1    0.1    0.1    0.36 	0.173686 	-0.00179924 	-0.00817527 	3.93378e-13 	-9.8937e-14 	3.6366e-14 	1.38685e-13 	-1.50818e-15 	1.2074e-13 	1.70524e-08 	3.54695e-09 	2.02164e-08 	7.87621e-10 	4.22904e-09 	2.3979e-08
0.1    0.1    0.1    0.1    0.1    0.45 	0.150593 	0.00318071 	0.0102244 	3.17728e-13 	-4.98581e-14 	5.4581e-14 	1.33131e-13 	-1.05779e-14 	1.28669e-13 	1.37917e-09 	-5.61596e-10 	7.18116e-09 	2.30749e-10 	-2.93238e-09 	3.74325e-08
0.1    0.1    0.1    0.1    0.1    0.54 	0.150593 	0.00318071 	0.0102244 	3.17728e-13 	-4.98581e-14 	5.4581e-14 	1.33131e-13 	-1.05779e-14 	1.28669e-13 	1.37917e-09 	-5.61596e-10 	7.18116e-09 	2.30749e-10 	-2.93238e-09 	3.74325e-08
0.1    0.1    0.1    0.1    0.1    0.63 	0.144386 	-0.0153949 	-0.00811175 	4.23766e-13 	-1.30907e-13 	4.88766e-14 	2.11652e-13 	-2.13401e-14 	1.32069e-13 	1.23315e-07 	-2.71264e-08 	-4.8916e-08 	5.9731e-09 	1.07671e-08 	1.94115e-08
0.1    0.1    0.1    0.1    0.1    0.72 	0.144386 	-0.0153949 	-0.00811175 	4.23766e-13 	-1.30907e-13 	4.88766e-14 	2.11652e-13 	-2.13401e-14 	1.32069e-13 	1.23315e-07 	-2.71264e-08 	-4.8916e-08 	5.9731e-09 	1.07671e-08 	1.94115e-08
0.1    0.1    0.1    0.1    0.1    0.81 	0.140285 	-0.00651446 	-0.00107584 	3.03212e-13 	-8.1094e-14 	4.90183e-14 	1.91994e-13 	-6.6329e-14 	1.14172e-13 	1.76644e-12 	1.55806e-10 	-1.5057e-10 	1.41194e-08 	-1.3632e-08 	1.3199e-08
0.1    0.1    0.1    0.1    0.1    0.9 	0.140285 	-0.00651446 	-0.00107584 	3.03212e-13 	-8.1094e-14 	4.90183e-14 	1.91994e-13 	-6.6329e-14 	1.14172e-13 	1.76644e-12 	1.55806e-10 	-1.5057e-10 	1.41194e-08 	-1.3632e-08 	1.3199e-08
0.1    0.1    0.1    0.1    0.1    0.99 	0.139195 	-0.0181436 	0.00174872 	2.88002e-13 	-8.36361e-14 	2.28848e-14 	1.26376e-13 	-1.54456e-14 	1.24948e-13 	7.45375e-08 	-1.60957e-08 	-4.66849e-08 	3.47799e-09 	1.00744e-08 	2.92687e-08
0.1    0.1    0.1    0.1    0.1    1.08 	0.139195 	-0.0181436 	0.00174872 	2.88002e-13 	-8.36361e-14 	2.28848e-14 	1.26376e-13 	-1.54456e-14 	1.24948e-13 	7.45375e-08 	-1.60957e-08 	-4.66849e-08 	3.47799e-09 	1.00744e-08 	2.92687e-08
0.1    0.1    0.1    0.1    0.1    1.17 	0.139195 	-0.0181436 	0.00174872 	2.88002e-13 	-8.36361e-14 	2.28848e-14 	1.26376e-13 	-1.54456e-14 	1.24948e-13 	7.45375e-08 	-1.60957e-08 	-4.66849e-08 	3.47799e-09 	1.00744e-08 	2.92687e-08
0.1    0.1    0.1    0.1    0.1    1.26 	0.139865 	0.00200344 	0.0105216 	2.36994e-13 	-5.66629e-14 	1.95146e-14 	1.04019e-13 	-2.06669e-14 	1.71877e-13 	2.09454e-11 	-4.54841e-10 	-2.35895e-10 	1.24308e-08 	6.32671e-09 	3.22452e-09
0.1    0.1    0.1    0.1    0.1    1.35 	0.139865 	0.00200344 	0.0105216 	2.36994e-13 	-5.66629e-14 	1.95146e-14 	1.04019e-13 	-2.06669e-14 	1.71877e-13 	2.09454e-11 	-4.54841e-10 	-2.35895e-10 	1.24308e-08 	6.32671e-09 	3.22452e-09
0.1    0.1    0.1    0.1    0.1    1.44 	0.135578 	-0.00722878 	0.00325259 	3.06917e-13 	-1.29461e-13 	7.6578e-14 	1.62312e-13 	-6.74091e-14 	1.44655e-13 	2.97424e-10 	-3.92762e-09 	9.7966e-10 	5.18759e-08 	-1.29551e-08 	3.3534e-09
0.1    0.1    0.1    0.1    0.1    1.53 	0.135578 	-0.00722878 	0.00325259 	3.06917e-13 	-1.29461e-13 	7.6578e-14 	1.62312e-13 	-6.74091e-14 	1.44655e-13 	2.97424e-10 	-3.92762e-09 	9.7966e-10 	5.18759e-08 	-1.29551e-08 	3.3534e-09
0.1    0.1    0.1    0.1    0.1    1.62 	0.135645 	0.00105106 	0.0137705 	3.08468e-13 	-2.51204e-14 	1.11891e-14 	1.9346e-13 	-1.17484e-14 	8.39639e-14 	1.76041e-07 	1.30906e-07 	8.33389e-09 	9.73916e-08 	6.22213e-09 	4.07566e-10
0.1    0.1    0.1    0.1    0.1    1.71 	0.135645 	0.00105106 	0.0137705 	3.08468e-13 	-2.51204e-14 	1.11891e-14 	1.9346e-13 	-1.17484e-14 	8.39639e-14 	1.76041e-07 	1.30906e-07 	8.33389e-09 	9.73916e-08 	6.22213e-09 	4.07566e-10
0.1    0.1    0.1    0.1    0.1    1.8 	0.129547 	0.00773816 	0.0277529 	2.94509e-13 	-4.75865e-14 	3.21879e-16 	1.22867e-13 	-2.38364e-14 	1.30536e-13 	6.84223e-09 	-5.69742e-09 	-2.56329e-08 	4.7445e-09 	2.13398e-08 	9.60877e-08
0.1    0.1    0.1    0.1    0.1    1.89 	0.129547 	0.00773816 	0.0277529 	2.94509e-13 	-4.75865e-14 	3.21879e-16 	1.22867e-13 	-2.38364e-14 	1.30536e-13 	6.84223e-09 	-5.69742e-09 	-2.56329e-08 	4.7445e-09 	2.13398e-08 	9.60877e-08
0.1    0.1    0.1    0.1    0.1    1.98 	0.15877 	-0.0103543 	0.00370643 	2.88046e-13 	-3.48348e-14 	-6.23012e-14 	7.77119e-14 	-9.79163e-15 	2.07751e-13 	5.22814e-08 	-8.64464e-09 	-2.28023e-08 	1.46097e-09 	3.77519e-09 	9.94589e-09
0.1    0.1    0.1    0.1    0.1    2.07 	0.15877 	-0.0103543 	0.00370643 	2.88046e-13 	-3.48348e-14 	-6.23012e-14 	7.77119e-14 	-9.79163e-15 	2.07751e-13 	5.22814e-08 	-8.64464e-09 	-2.28023e-08 	1.46097e-09 	3.77519e-09 	9.94589e-09
0.1    0.1    0.1    0.1    0.1    2.16 	0.155494 	-0.00148195 	-0.00135661 	2.38533e-13 	-3.83412e-14 	-2.50069e-14 	7.91027e-14 	1.05474e-14 	1.46055e-13 	1.2323e-09 	2.68677e-10 	-7.64353e-09 	5.8616e-11 	-1.66631e-09 	4.74124e-08
0.1    0.1    0.1    0.1    0.1    2.25 	0.155494 	-0.00148195 	-0.00135661 	2.38533e-13 	-3.83412e-14 	-2.50069e-14 	7.91027e-14 	1.05474e-14 	1.46055e-13 	1.2323e-09 	2.68677e-10 	-7.64353e-09 	5.8616e-11 	-1.66631e-09 	4.74124e-08
0.1    0.1    0.1    0.1    0.1    2.34 	0.155494 	-0.00148195 	-0.00135661 	2.38533e-13 	-3.83412e-14 	-2.50069e-14 	7.91027e-14 	1.05474e-14 	1.46055e-13 	1.2323e-09 	2.68677e-10 	-7.64353e-09 	5.8616e-11 	-1.66631e-09 	4.74124e-08
0.1    0.1    0.1    0.1    0.1    2.43 	0.162236 	-0.00539856 	-0.00741192 	2.54631e-13 	-2.84964e-14 	-2.70861e-14 	8.95865e-14 	5.73521e-15 	1.00356e-13 	2.50848e-08 	-1.71241e-08 	1.04235e-09 	1.17266e-08 	-7.10651e-10 	4.33889e-11
0.1    0.1    0.1    0.1    0.1    2.52 	0.162236 	-0.00539856 	-0.00741192 	2.54631e-13 	-2.84964e-14 	-2.70861e-14 	8.95865e-14 	5.73521e-15 	1.00356e-13 	2.50848e-08 	-1.71241e-08 	1.04235e-09 	1.17266e-08 	-7.10651e-10 	4.33889e-11
0.1    0.1    0.1    0.1    0.1    2.61 	0.159606 	-0.0176748 	0.00379066 	2.72125e-13 	-4.74385e-14 	-3.09942e-14 	9.26966e-14 	2.33791e-15 	1.02262e-13 	7.31884e-09 	-4.99081e-09 	-4.7772e-09 	3.41169e-09 	3.26275e-09 	3.12136e-09
0.1    0.1    0.1    0.1    0.1    2.7 	0.159606 	-0.0176748 	0.00379066 	2.72125e-13 	-4.74385e-14 	-3.09942e-14 	9.26966e-14 	2.33791e-15 	1.02262e-13 	7.31884e-09 	-4.99081e-09 	-4.7772e-09 	3.41169e-09 	3.26275e-09 	3.12136e-09
0.1    0.1    0.1    0.1    0.1    2.79 	0.15129 	0.00763364 	0.00142494 	2.48322e-13 	-2.28966e-14 	-4.50486e-14 	9.57429e-14 	-1.0996e-14 	1.11188e-13 	3.82133e-08 	-1.57018e-08 	-2.84224e-08 	6.45219e-09 	1.16785e-08 	2.11408e-08
0.1    0.1    0.1    0.1    0.1    2.88 	0.15129 	0.00763364 	0.00142494 	2.48322e-13 	-2.28966e-14 	-4.50486e-14 	9.57429e-14 	-1.0996e-14 	1.11188e-13 	3.82133e-08 	-1.57018e-08 	-2.84224e-08 	6.45219e-09 	1.16785e-08 	2.11408e-08
0.1    0.1    0.1    0.1    0.1    2.97 	0.16718 	0.00500055 	0.004624 	3.05125e-13 	3.00544e-14 	-4.2148e-14 	7.28751e-14 	2.69175e-14 	1.48272e-13 	5.41373e-10 	2.02078e-09 	-2.05688e-10 	7.60761e-09 	-7.93191e-10 	8.85251e-11
0.1    0.1    0.1    0.1    0.1    3.06 	0.16718 	0.00500055 	0.004624 	3.05125e-13 	3.00544e-14 	-4.2148e-14 	7.28751e-14 	2.69175e-14 	1.48272e-13 	5.41373e-10 	2.02078e-09 	-2.05688e-10 	7.60761e-09 	-7.93191e-10 	8.85251e-11
0.1    0.1    0.1    0.1    0.1    3.15 	0.152571 	-0.0215184 	-0.00554321 	2.51677e-13 	3.93286e-14 	3.13422e-15 	7.19386e-14 	-2.16676e-14 	1.2958e-13 	1.94486e-09 	-8.41128e-09 	6.66121e-10 	3.66288e-08 	-2.90686e-09 	2.30856e-10
0.1    0.1    0.1    0.1    0.1    3.24 	0.152571 	-0.0215184 	-0.00554321 	2.51677e-13 	3.93286e-14 	3.13422e-15 	7.19386e-14 	-2.16676e-14 	1.2958e-13 	1.94486e-09 	-8.41128e-09 	6.66121e-10 	3.66288e-08 	-2.90686e-09 	2.30856e-10
0.1    0.1    0.1    0.1    0.1    3.33 	0.182565 	-0.00813978 	0.00522072 	2.74098e-13 	-6.54795e-16 	3.4749e-14 	1.13818e-13 	-3.21688e-14 	1.03606e-13 	6.38723e-09 	1.25714e-08 	-1.04401e-08 	2.48232e-08 	-2.05288e-08 	1.7071e-08
0.1    0.1    0.1    0.1    0.1    3.42 	0.182565 	-0.00813978 	0.00522072 	2.74098e-13 	-6.54795e-16 	3.4749e-14 	1.13818e-13 	-3.21688e-14 	1.03606e-13 	6.38723e-09 	1.25714e-08 	-1.04401e-08 	2.48232e-08 	-2.05288e-08 	1.7071e-08
0.1    0.1    0.1    0.1    0.1    3.51 	0.182565 	-0.00813978 	0.00522072 	2.74098e-13 	-6.54795e-16 	3.4749e-14 	1.13818e-13 	-3.21688e-14 	1.03606e-13 	6.38723e-09 	1.25714e-08 	-1.04401e-08 	2.48232e-08 	-2.05288e-08 	1.7071e-08
0.1    0.1    0.1    0.1    0.1    3.6 	0.144164 	0.00157216 	0.00416743 	3.23632e-13 	-9.08929e-14 	5.80809e-14 	1.0067e-13 	-2.60155e-14 	1.46927e-13 	2.12158e-08 	2.88417e-09 	5.94779e-09 	3.96352e-10 	8.10262e-10 	1.66823e-09
0.1    0.1    0.1    0.1    0.1    3.69 	0.144164 	0.00157216 	0.00416743 	3.23632e-13 	-9.08929e-14 	5.80809e-14 	1.0067e-13 	-2.60155e-14 	1.46927e-13 	2.12158e-08 	2.88417e-09 	5.94779e-09 	3.96352e-10 	8.10262e-10 	1.66823e-09
0.1    0.1    0.1    0.1    0.1    3.78 	0.164964 	-0.00333228 	0.00560212 	2.3851e-13 	-2.80958e-14 	3.25517e-14 	6.71377e-14 	1.27339e-15 	1.27952e-13 	1.38114e-08 	4.19197e-09 	-1.57627e-09 	1.2735e-09 	-4.83149e-10 	2.02779e-10
0.1    0.1    0.1    0.1    0.1    3.87 	0.164964 	-0.00333228 	0.00560212 	2.3851e-13 	-2.80958e-14 	3.25517e-14 	6.71377e-14 	1.27339e-15 	1.27952e-13 	1.38114e-08 	4.19197e-09 	-1.57627e-09 	1.2735e-09 	-4.83149e-10 	2.02779e-10
0.1    0.1    0.1    0.1    0.1    3.96 	0.16196 	-0.0046646 	-0.00013864 	2.54016e-13 	-8.34076e-15 	4.62794e-14 	7.29473e-14 	-3.13777e-14 	1.2995e-13 	2.70153e-08 	-1.39548e-08 	3.16637e-09 	7.22283e-09 	-1.62868e-09 	3.7461e-10
0.1    0.1    0.1    0.1    0.1    4.05 	0.16196 	-0.0046646 	-0.00013864 	2.54016e-13 	-8.34076e-15 	4.62794e-14 	7.29473e-14 	-3.13777e-14 	1.2995e-13 	2.70153e-08 	-1.39548e-08 	3.16637e-09 	7.22283e-09 	-1.62868e-09 	3.7461e-10
0.1    0.1    0.1    0.1    0.1    4.14 	0.175073 	-0.00576122 	-0.0118923 	4.65626e-13 	-1.74119e-13 	6.54196e-14 	1.75957e-13 	-3.51207e-14 	1.32719e-13 	1.56671e-08 	1.29884e-08 	-1.49601e-08 	1.07764e-08 	-1.24229e-08 	1.43384e-08
0.1    0.1    0.1    0.1    0.1    4.23 	0.175073 	-0.00576122 	-0.0118923 	4.65626e-13 	-1.74119e-13 	6.54196e-14 	1.75957e-13 	-3.51207e-14 	1.32719e-13 	1.56671e-08 	1.29884e-08 	-1.49601e-08 	1.07764e-08 	-1.24229e-08 	1.43384e-08
0.1    0.1    0.1    0.1    0.1    4.32 	0.157008 	0.0134634 	0.00204075 	5.08253e-13 	-1.47437e-13 	9.6481e-14 	1.54832e-13 	-4.27123e-14 	1.5927e-13 	3.7616e-08 	-2.92852e-08 	-3.51317e-08 	2.28049e-08 	2.7372e-08 	3.2892e-08
0.1    0.1    0.1    0.1    0.1    4.41 	0.157008 	0.0134634 	0.00204075 	5.08253e-13 	-1.47437e-13 	9.6481e-14 	1.54832e-13 	-4.27123e-14 	1.5927e-13 	3.7616e-08 	-2.92852e-08 	-3.51317e-08 	2.28049e-08 	2.7372e-08 	3.2892e-08
0.1    0.1    0.1    0.1    0.1    4.5 	0.157008 	0.0134634 	0.00204075 	5.08253e-13 	-1.47437e-13 	9.6481e-14 	1.54832e-13 	-4.27123e-14 	1.5927e-13 	3.7616e-08 	-2.92852e-08 	-3.51317e-08 	2.28049e-08 	2.7372e-08 	3.2892e-08
