0.1    0 	0.179071 	-0.0103634 	0.0339704 	4.49504e-13 	-1.25684e-13 	7.68593e-14 	1.69805e-13 	-5.53329e-15 	1.61822e-13 	7.63166e-09 	-2.66854e-08 	-3.05667e-08 	9.45718e-08 	1.06934e-07 	1.22434e-07
0.1    0.09 	0.179071 	-0.0103634 	0.0339704 	4.49504e-13 	-1.25684e-13 	7.68593e-14 	1.69805e-13 	-5.53329e-15 	1.61822e-13 	7.63166e-09 	-2.66854e-08 	-3.05667e-08 	9.45718e-08 	1.06934e-07 	1.22434e-07
0.1    0.18 	0.179071 	-0.0103634 	0.0339704 	4.49504e-13 	-1.25684e-13 	7.68593e-14 	1.69805e-13 	-5.53329e-15 	1.61822e-13 	7.63166e-09 	-2.66854e-08 	-3.05667e-08 	9.45718e-08 	1.06934e-07 	1.22434e-07
0.1    0.27 	0.139836 	-0.0161841 	0.039337 	4.04664e-13 	-1.1447e-13 	4.46038e-14 	1.43501e-13 	9.92863e-15 	1.91114e-13 	7.1251e-09 	3.90297e-09 	-1.56282e-09 	2.22146e-09 	-7.72656e-10 	4.33513e-10
0.1    0.36 	0.139836 	-0.0161841 	0.039337 	4.04664e-13 	-1.1447e-13 	4.46038e-14 	1.43501e-13 	9.92863e-15 	1.91114e-13 	7.1251e-09 	3.90297e-09 	-1.56282e-09 	2.22146e-09 	-7.72656e-10 	4.33513e-10
0.1    0.45 	0.16292 	-0.00818289 	0.0111716 	4.35415e-13 	-1.16225e-13 	1.07154e-14 	1.49929e-13 	-5.13829e-16 	1.63864e-13 	5.93354e-09 	1.56799e-08 	-9.82061e-09 	4.17864e-08 	-2.63979e-08 	1.68234e-08
0.1    0.54 	0.16292 	-0.00818289 	0.0111716 	4.35415e-13 	-1.16225e-13 	1.07154e-14 	1.49929e-13 	-5.13829e-16 	1.63864e-13 	5.93354e-09 	1.56799e-08 	-9.82061e-09 	4.17864e-08 	-2.63979e-08 	1.68234e-08
0.1    0.63 	0.14075 	-0.0215263 	0.0342122 	3.54505e-13 	-1.25614e-13 	2.82507e-14 	1.68122e-13 	8.61858e-15 	1.23503e-13 	2.20479e-08 	-1.695e-09 	-1.05276e-08 	1.72744e-10 	8.20517e-10 	5.03037e-09
0.1    0.72 	0.14075 	-0.0215263 	0.0342122 	3.54505e-13 	-1.25614e-13 	2.82507e-14 	1.68122e-13 	8.61858e-15 	1.23503e-13 	2.20479e-08 	-1.695e-09 	-1.05276e-08 	1.72744e-10 	8.20517e-10 	5.03037e-09
0.1    0.81 	0.139012 	0.00310491 	0.0419155 	2.65238e-13 	-8.65328e-14 	3.67891e-15 	1.41456e-13 	1.7965e-14 	1.4643e-13 	2.63773e-09 	-5.0616e-09 	9.59259e-09 	9.75531e-09 	-1.85565e-08 	3.5409e-08
0.1    0.9 	0.139012 	0.00310491 	0.0419155 	2.65238e-13 	-8.65328e-14 	3.67891e-15 	1.41456e-13 	1.7965e-14 	1.4643e-13 	2.63773e-09 	-5.0616e-09 	9.59259e-09 	9.75531e-09 	-1.85565e-08 	3.5409e-08
0.1    0.99 	0.108701 	0.013105 	0.00535953 	2.39712e-13 	-7.54429e-14 	-6.54565e-16 	1.26785e-13 	1.79303e-14 	1.62327e-13 	1.7208e-07 	-7.80598e-08 	-4.69533e-08 	3.5411e-08 	2.13002e-08 	1.28127e-08
0.1    1.08 	0.108701 	0.013105 	0.00535953 	2.39712e-13 	-7.54429e-14 	-6.54565e-16 	1.26785e-13 	1.79303e-14 	1.62327e-13 	1.7208e-07 	-7.80598e-08 	-4.69533e-08 	3.5411e-08 	2.13002e-08 	1.28127e-08
0.1    1.17 	0.108701 	0.013105 	0.00535953 	2.39712e-13 	-7.54429e-14 	-6.54565e-16 	1.26785e-13 	1.79303e-14 	1.62327e-13 	1.7208e-07 	-7.80598e-08 	-4.69533e-08 	3.5411e-08 	2.13002e-08 	1.28127e-08
0.1    1.26 	0.162419 	0.0338199 	-0.0184323 	2.75156e-13 	-9.90181e-14 	-1.71474e-14 	1.74788e-13 	1.11262e-14 	1.21676e-13 	2.54001e-09 	1.9774e-08 	-4.0155e-09 	1.53997e-07 	-3.12113e-08 	6.40808e-09
0.1    1.35 	0.162419 	0.0338199 	-0.0184323 	2.75156e-13 	-9.90181e-14 	-1.71474e-14 	1.74788e-13 	1.11262e-14 	1.21676e-13 	2.54001e-09 	1.9774e-08 	-4.0155e-09 	1.53997e-07 	-3.12113e-08 	6.40808e-09
0.1    1.44 	0.161897 	0.00697016 	0.0210777 	3.28582e-13 	-1.22868e-13 	-7.29658e-15 	1.48401e-13 	1.45326e-14 	1.35286e-13 	4.79972e-08 	2.86346e-08 	1.05749e-08 	1.71283e-08 	6.31049e-09 	2.32996e-09
0.1    1.53 	0.161897 	0.00697016 	0.0210777 	3.28582e-13 	-1.22868e-13 	-7.29658e-15 	1.48401e-13 	1.45326e-14 	1.35286e-13 	4.79972e-08 	2.86346e-08 	1.05749e-08 	1.71283e-08 	6.31049e-09 	2.32996e-09
0.1    1.62 	0.135146 	0.0111457 	-0.00993558 	2.99784e-13 	-1.18419e-13 	-5.37425e-15 	1.37454e-13 	-2.6298e-15 	1.4283e-13 	3.61128e-09 	-2.68183e-09 	4.51758e-09 	2.29809e-09 	-3.44584e-09 	5.67861e-09
0.1    1.71 	0.135146 	0.0111457 	-0.00993558 	2.99784e-13 	-1.18419e-13 	-5.37425e-15 	1.37454e-13 	-2.6298e-15 	1.4283e-13 	3.61128e-09 	-2.68183e-09 	4.51758e-09 	2.29809e-09 	-3.44584e-09 	5.67861e-09
0.1    1.8 	0.117948 	0.0175871 	-0.00407725 	3.38246e-13 	-1.28763e-13 	-1.39486e-14 	1.42239e-13 	-3.37834e-15 	1.1225e-13 	1.36142e-08 	9.10761e-09 	-2.66731e-08 	6.31773e-09 	-1.82523e-08 	5.30017e-08
0.1    1.89 	0.117948 	0.0175871 	-0.00407725 	3.38246e-13 	-1.28763e-13 	-1.39486e-14 	1.42239e-13 	-3.37834e-15 	1.1225e-13 	1.36142e-08 	9.10761e-09 	-2.66731e-08 	6.31773e-09 	-1.82523e-08 	5.30017e-08
0.1    1.98 	0.146368 	0.0122218 	0.00882318 	2.94396e-13 	-1.1308e-13 	-3.64725e-14 	1.46109e-13 	1.08124e-14 	1.22116e-13 	6.49316e-08 	-1.10247e-07 	-1.82477e-08 	1.87192e-07 	3.10067e-08 	5.30904e-09
0.1    2.07 	0.146368 	0.0122218 	0.00882318 	2.94396e-13 	-1.1308e-13 	-3.64725e-14 	1.46109e-13 	1.08124e-14 	1.22116e-13 	6.49316e-08 	-1.10247e-07 	-1.82477e-08 	1.87192e-07 	3.10067e-08 	5.30904e-09
0.1    2.16 	0.125739 	0.0306786 	-0.00153253 	2.64128e-13 	-7.20125e-14 	-3.68556e-14 	1.20657e-13 	1.02857e-14 	1.6914e-13 	2.28947e-09 	5.13313e-09 	-4.83047e-09 	1.1612e-08 	-1.07918e-08 	1.02146e-08
0.1    2.25 	0.125739 	0.0306786 	-0.00153253 	2.64128e-13 	-7.20125e-14 	-3.68556e-14 	1.20657e-13 	1.02857e-14 	1.6914e-13 	2.28947e-09 	5.13313e-09 	-4.83047e-09 	1.1612e-08 	-1.07918e-08 	1.02146e-08
0.1    2.34 	0.125739 	0.0306786 	-0.00153253 	2.64128e-13 	-7.20125e-14 	-3.68556e-14 	1.20657e-13 	1.02857e-14 	1.6914e-13 	2.28947e-09 	5.13313e-09 	-4.83047e-09 	1.1612e-08 	-1.07918e-08 	1.02146e-08
0.1    2.43 	0.151139 	0.0133022 	-0.00096228 	2.66116e-13 	-8.52062e-14 	-2.40942e-14 	1.40265e-13 	1.04989e-14 	1.93621e-13 	9.77232e-08 	-1.03565e-08 	-1.71583e-07 	1.10955e-09 	1.81958e-08 	3.0129e-07
0.1    2.52 	0.151139 	0.0133022 	-0.00096228 	2.66116e-13 	-8.52062e-14 	-2.40942e-14 	1.40265e-13 	1.04989e-14 	1.93621e-13 	9.77232e-08 	-1.03565e-08 	-1.71583e-07 	1.10955e-09 	1.81958e-08 	3.0129e-07
0.1    2.61 	0.16114 	0.00820165 	-0.0168284 	3.15999e-13 	-8.65243e-14 	-2.28482e-14 	1.2814e-13 	-2.46001e-14 	2.13363e-13 	1.72226e-09 	-4.60651e-09 	5.50804e-09 	1.32966e-08 	-1.56214e-08 	1.84268e-08
0.1    2.7 	0.16114 	0.00820165 	-0.0168284 	3.15999e-13 	-8.65243e-14 	-2.28482e-14 	1.2814e-13 	-2.46001e-14 	2.13363e-13 	1.72226e-09 	-4.60651e-09 	5.50804e-09 	1.32966e-08 	-1.56214e-08 	1.84268e-08
0.1    2.79 	0.161809 	-0.0030526 	0.000632436 	4.53076e-13 	-1.55997e-13 	-3.32624e-14 	1.81015e-13 	1.11214e-14 	2.02292e-13 	1.77552e-10 	-4.77174e-11 	1.93863e-09 	5.29731e-11 	-7.24018e-10 	2.29638e-08
0.1    2.88 	0.161809 	-0.0030526 	0.000632436 	4.53076e-13 	-1.55997e-13 	-3.32624e-14 	1.81015e-13 	1.11214e-14 	2.02292e-13 	1.77552e-10 	-4.77174e-11 	1.93863e-09 	5.29731e-11 	-7.24018e-10 	2.29638e-08
0.1    2.97 	0.191285 	-0.0451494 	-0.00135211 	5.14921e-13 	-2.07634e-13 	-3.12215e-14 	2.44147e-13 	1.37865e-14 	1.62058e-13 	2.13985e-08 	-3.9607e-08 	6.85913e-09 	7.33813e-08 	-1.26492e-08 	2.22936e-09
0.1    3.06 	0.191285 	-0.0451494 	-0.00135211 	5.14921e-13 	-2.07634e-13 	-3.12215e-14 	2.44147e-13 	1.37865e-14 	1.62058e-13 	2.13985e-08 	-3.9607e-08 	6.85913e-09 	7.33813e-08 	-1.26492e-08 	2.22936e-09
0.1    3.15 	0.170443 	-0.0300531 	-0.0107841 	4.56898e-13 	-1.99626e-13 	-4.33239e-14 	2.34023e-13 	-9.65476e-15 	1.5574e-13 	1.62625e-08 	-2.03087e-08 	7.07886e-08 	2.5368e-08 	-8.85491e-08 	3.12286e-07
0.1    3.24 	0.170443 	-0.0300531 	-0.0107841 	4.56898e-13 	-1.99626e-13 	-4.33239e-14 	2.34023e-13 	-9.65476e-15 	1.5574e-13 	1.62625e-08 	-2.03087e-08 	7.07886e-08 	2.5368e-08 	-8.85491e-08 	3.12286e-07
0.1    3.33 	0.147339 	-0.0115729 	0.0199482 	4.99774e-13 	-1.97426e-13 	2.73986e-14 	2.02921e-13 	-1.86189e-14 	1.94735e-13 	1.80112e-08 	1.62932e-08 	2.65991e-09 	1.48867e-08 	2.47171e-09 	4.22113e-10
0.1    3.42 	0.147339 	-0.0115729 	0.0199482 	4.99774e-13 	-1.97426e-13 	2.73986e-14 	2.02921e-13 	-1.86189e-14 	1.94735e-13 	1.80112e-08 	1.62932e-08 	2.65991e-09 	1.48867e-08 	2.47171e-09 	4.22113e-10
0.1    3.51 	0.147339 	-0.0115729 	0.0199482 	4.99774e-13 	-1.97426e-13 	2.73986e-14 	2.02921e-13 	-1.86189e-14 	1.94735e-13 	1.80112e-08 	1.62932e-08 	2.65991e-09 	1.48867e-08 	2.47171e-09 	4.22113e-10
0.1    3.6 	0.153165 	0.0198672 	-0.026736 	3.89824e-13 	-1.06183e-13 	-2.03819e-15 	1.3389e-13 	-3.76021e-15 	1.76649e-13 	6.07853e-09 	6.56791e-09 	-8.13174e-09 	7.09879e-09 	-8.79022e-09 	1.09259e-08
0.1    3.69 	0.153165 	0.0198672 	-0.026736 	3.89824e-13 	-1.06183e-13 	-2.03819e-15 	1.3389e-13 	-3.76021e-15 	1.76649e-13 	6.07853e-09 	6.56791e-09 	-8.13174e-09 	7.09879e-09 	-8.79022e-09 	1.09259e-08
0.1    3.78 	0.162678 	0.0184802 	0.000695517 	3.84648e-13 	-1.05875e-13 	3.84447e-14 	1.56279e-13 	1.34787e-14 	1.50676e-13 	3.43606e-09 	-4.01707e-09 	2.12053e-08 	4.8644e-09 	-2.46403e-08 	1.31048e-07
0.1    3.87 	0.162678 	0.0184802 	0.000695517 	3.84648e-13 	-1.05875e-13 	3.84447e-14 	1.56279e-13 	1.34787e-14 	1.50676e-13 	3.43606e-09 	-4.01707e-09 	2.12053e-08 	4.8644e-09 	-2.46403e-08 	1.31048e-07
0.1    3.96 	0.155971 	0.0307908 	-0.0109556 	3.4204e-13 	-8.16113e-14 	3.71671e-14 	1.54784e-13 	2.17376e-14 	1.52444e-13 	3.75566e-08 	4.75103e-08 	1.46866e-08 	6.07697e-08 	1.85498e-08 	5.74491e-09
0.1    4.05 	0.155971 	0.0307908 	-0.0109556 	3.4204e-13 	-8.16113e-14 	3.71671e-14 	1.54784e-13 	2.17376e-14 	1.52444e-13 	3.75566e-08 	4.75103e-08 	1.46866e-08 	6.07697e-08 	1.85498e-08 	5.74491e-09
0.1    4.14 	0.137407 	0.00711342 	0.00359362 	3.94364e-13 	-1.05598e-13 	9.05266e-14 	1.72834e-13 	-3.18628e-14 	1.44092e-13 	5.33915e-08 	1.54012e-08 	8.0793e-08 	4.46198e-09 	2.33405e-08 	1.22342e-07
0.1    4.23 	0.137407 	0.00711342 	0.00359362 	3.94364e-13 	-1.05598e-13 	9.05266e-14 	1.72834e-13 	-3.18628e-14 	1.44092e-13 	5.33915e-08 	1.54012e-08 	8.0793e-08 	4.46198e-09 	2.33405e-08 	1.22342e-07
0.1    4.32 	0.152468 	0.00659073 	0.0180003 	5.36265e-13 	-1.82491e-13 	9.94684e-14 	2.24198e-13 	-2.15498e-14 	1.7665e-13 	1.25073e-08 	1.63831e-08 	-1.83884e-08 	2.1494e-08 	-2.42014e-08 	2.7438e-08
0.1    4.41 	0.152468 	0.00659073 	0.0180003 	5.36265e-13 	-1.82491e-13 	9.94684e-14 	2.24198e-13 	-2.15498e-14 	1.7665e-13 	1.25073e-08 	1.63831e-08 	-1.83884e-08 	2.1494e-08 	-2.42014e-08 	2.7438e-08
0.1    4.5 	0.152468 	0.00659073 	0.0180003 	5.36265e-13 	-1.82491e-13 	9.94684e-14 	2.24198e-13 	-2.15498e-14 	1.7665e-13 	1.25073e-08 	1.63831e-08 	-1.83884e-08 	2.1494e-08 	-2.42014e-08 	2.7438e-08
