0.1    0 	0.0831004 	0.00268253 	-0.0194473 	1.33518e-12 	-5.26317e-13 	-1.67529e-13 	2.19089e-13 	9.33087e-14 	1.69628e-13 	6.32306e-07 	-4.59359e-07 	-6.94303e-07 	3.35079e-07 	5.06196e-07 	7.6477e-07
0.1    0.09 	0.0831004 	0.00268253 	-0.0194473 	1.33518e-12 	-5.26317e-13 	-1.67529e-13 	2.19089e-13 	9.33087e-14 	1.69628e-13 	6.32306e-07 	-4.59359e-07 	-6.94303e-07 	3.35079e-07 	5.06196e-07 	7.6477e-07
0.1    0.18 	0.0831004 	0.00268253 	-0.0194473 	1.33518e-12 	-5.26317e-13 	-1.67529e-13 	2.19089e-13 	9.33087e-14 	1.69628e-13 	6.32306e-07 	-4.59359e-07 	-6.94303e-07 	3.35079e-07 	5.06196e-07 	7.6477e-07
0.1    0.27 	0.0687636 	-0.0198749 	0.0191106 	1.11556e-12 	-3.82226e-13 	-1.50726e-13 	3.35309e-13 	5.21173e-14 	1.60292e-13 	9.0612e-08 	1.33621e-07 	-1.68587e-07 	2.00519e-07 	-2.5057e-07 	3.14784e-07
0.1    0.36 	0.0687636 	-0.0198749 	0.0191106 	1.11556e-12 	-3.82226e-13 	-1.50726e-13 	3.35309e-13 	5.21173e-14 	1.60292e-13 	9.0612e-08 	1.33621e-07 	-1.68587e-07 	2.00519e-07 	-2.5057e-07 	3.14784e-07
0.1    0.45 	0.036936 	-0.0244863 	0.0689515 	5.61031e-13 	-2.76167e-13 	-3.68515e-14 	2.24628e-13 	-2.30125e-15 	1.79509e-13 	5.58935e-07 	3.94117e-08 	-1.74848e-07 	2.78268e-09 	-1.21931e-08 	6.382e-08
0.1    0.54 	0.036936 	-0.0244863 	0.0689515 	5.61031e-13 	-2.76167e-13 	-3.68515e-14 	2.24628e-13 	-2.30125e-15 	1.79509e-13 	5.58935e-07 	3.94117e-08 	-1.74848e-07 	2.78268e-09 	-1.21931e-08 	6.382e-08
0.1    0.63 	0.0519091 	0.0111989 	0.0170243 	7.83242e-13 	-2.04237e-13 	1.57551e-13 	1.37626e-13 	9.59532e-15 	3.18894e-13 	6.14088e-08 	1.46893e-07 	5.15353e-09 	3.6279e-07 	1.49898e-08 	1.05986e-09
0.1    0.72 	0.0519091 	0.0111989 	0.0170243 	7.83242e-13 	-2.04237e-13 	1.57551e-13 	1.37626e-13 	9.59532e-15 	3.18894e-13 	6.14088e-08 	1.46893e-07 	5.15353e-09 	3.6279e-07 	1.49898e-08 	1.05986e-09
0.1    0.81 	0.0650324 	-0.025156 	0.0184255 	1.03004e-12 	-5.57855e-13 	8.74088e-14 	2.09259e-13 	3.9687e-14 	1.8027e-13 	2.25393e-08 	6.66841e-08 	-5.74824e-08 	2.16329e-07 	-1.87738e-07 	1.63013e-07
0.1    0.9 	0.0650324 	-0.025156 	0.0184255 	1.03004e-12 	-5.57855e-13 	8.74088e-14 	2.09259e-13 	3.9687e-14 	1.8027e-13 	2.25393e-08 	6.66841e-08 	-5.74824e-08 	2.16329e-07 	-1.87738e-07 	1.63013e-07
0.1    0.99 	0.0281751 	-0.0237898 	-0.0022835 	5.24095e-13 	-2.20793e-13 	-9.5072e-14 	1.81012e-13 	9.70521e-14 	2.14902e-13 	7.40637e-11 	-5.84651e-09 	4.13026e-09 	4.81942e-07 	-3.41946e-07 	2.43578e-07
0.1    1.08 	0.0281751 	-0.0237898 	-0.0022835 	5.24095e-13 	-2.20793e-13 	-9.5072e-14 	1.81012e-13 	9.70521e-14 	2.14902e-13 	7.40637e-11 	-5.84651e-09 	4.13026e-09 	4.81942e-07 	-3.41946e-07 	2.43578e-07
0.1    1.17 	0.0281751 	-0.0237898 	-0.0022835 	5.24095e-13 	-2.20793e-13 	-9.5072e-14 	1.81012e-13 	9.70521e-14 	2.14902e-13 	7.40637e-11 	-5.84651e-09 	4.13026e-09 	4.81942e-07 	-3.41946e-07 	2.43578e-07
0.1    1.26 	0.0377327 	0.00502075 	-0.0122096 	4.51484e-13 	-1.93179e-13 	5.6248e-14 	2.2223e-13 	-2.74065e-14 	1.8885e-13 	1.63234e-07 	9.41325e-08 	-8.25977e-08 	5.48668e-08 	-4.83966e-08 	4.27995e-08
0.1    1.35 	0.0377327 	0.00502075 	-0.0122096 	4.51484e-13 	-1.93179e-13 	5.6248e-14 	2.2223e-13 	-2.74065e-14 	1.8885e-13 	1.63234e-07 	9.41325e-08 	-8.25977e-08 	5.48668e-08 	-4.83966e-08 	4.27995e-08
0.1    1.44 	-0.0163247 	0.0588504 	-0.0198259 	3.11328e-13 	-1.83278e-13 	-3.33315e-14 	3.05134e-13 	-4.15981e-14 	2.10891e-13 	5.02837e-08 	-3.68578e-08 	-2.32654e-08 	2.70903e-08 	1.72132e-08 	1.1165e-08
0.1    1.53 	-0.0163247 	0.0588504 	-0.0198259 	3.11328e-13 	-1.83278e-13 	-3.33315e-14 	3.05134e-13 	-4.15981e-14 	2.10891e-13 	5.02837e-08 	-3.68578e-08 	-2.32654e-08 	2.70903e-08 	1.72132e-08 	1.1165e-08
0.1    1.62 	0.0630911 	0.00871723 	-0.0247481 	7.40938e-13 	-5.62082e-13 	1.01898e-13 	3.31949e-13 	-3.3528e-14 	2.33504e-13 	1.02174e-09 	-2.29227e-08 	-1.62633e-08 	5.77764e-07 	4.12809e-07 	2.95118e-07
0.1    1.71 	0.0630911 	0.00871723 	-0.0247481 	7.40938e-13 	-5.62082e-13 	1.01898e-13 	3.31949e-13 	-3.3528e-14 	2.33504e-13 	1.02174e-09 	-2.29227e-08 	-1.62633e-08 	5.77764e-07 	4.12809e-07 	2.95118e-07
0.1    1.8 	0.0232099 	-0.0220269 	-0.0219751 	4.11066e-13 	-4.23499e-13 	2.99536e-13 	2.43865e-13 	-1.43123e-13 	3.37385e-13 	1.59097e-07 	2.61844e-07 	-4.63913e-07 	4.30981e-07 	-7.63245e-07 	1.35539e-06
0.1    1.89 	0.0232099 	-0.0220269 	-0.0219751 	4.11066e-13 	-4.23499e-13 	2.99536e-13 	2.43865e-13 	-1.43123e-13 	3.37385e-13 	1.59097e-07 	2.61844e-07 	-4.63913e-07 	4.30981e-07 	-7.63245e-07 	1.35539e-06
0.1    1.98 	0.182053 	-0.128584 	-0.00811521 	9.72662e-13 	-7.1037e-13 	1.00557e-13 	4.80308e-13 	-8.92199e-14 	2.02765e-13 	3.09733e-07 	-1.74721e-07 	1.1669e-07 	9.89248e-08 	-6.59398e-08 	4.4013e-08
0.1    2.07 	0.182053 	-0.128584 	-0.00811521 	9.72662e-13 	-7.1037e-13 	1.00557e-13 	4.80308e-13 	-8.92199e-14 	2.02765e-13 	3.09733e-07 	-1.74721e-07 	1.1669e-07 	9.89248e-08 	-6.59398e-08 	4.4013e-08
0.1    2.16 	0.122608 	-0.0239581 	0.0318624 	9.97239e-13 	-7.32078e-13 	1.2059e-13 	4.91187e-13 	-9.11487e-14 	2.91933e-13 	1.57382e-09 	-1.81855e-08 	-1.78908e-08 	4.64284e-07 	4.46613e-07 	4.29818e-07
0.1    2.25 	0.122608 	-0.0239581 	0.0318624 	9.97239e-13 	-7.32078e-13 	1.2059e-13 	4.91187e-13 	-9.11487e-14 	2.91933e-13 	1.57382e-09 	-1.81855e-08 	-1.78908e-08 	4.64284e-07 	4.46613e-07 	4.29818e-07
0.1    2.34 	0.122608 	-0.0239581 	0.0318624 	9.97239e-13 	-7.32078e-13 	1.2059e-13 	4.91187e-13 	-9.11487e-14 	2.91933e-13 	1.57382e-09 	-1.81855e-08 	-1.78908e-08 	4.64284e-07 	4.46613e-07 	4.29818e-07
0.1    2.43 	0.0943441 	-0.00592774 	-0.0158319 	7.13577e-13 	-2.50264e-13 	-1.3237e-14 	2.22231e-13 	1.32478e-15 	2.3591e-13 	2.75016e-08 	-1.4392e-08 	-4.42358e-09 	7.97118e-09 	2.67011e-09 	1.00236e-09
0.1    2.52 	0.0943441 	-0.00592774 	-0.0158319 	7.13577e-13 	-2.50264e-13 	-1.3237e-14 	2.22231e-13 	1.32478e-15 	2.3591e-13 	2.75016e-08 	-1.4392e-08 	-4.42358e-09 	7.97118e-09 	2.67011e-09 	1.00236e-09
0.1    2.61 	0.0618283 	0.00385179 	0.0207582 	6.60512e-13 	-1.14994e-13 	-7.41537e-15 	1.9629e-13 	-2.33151e-14 	2.21624e-13 	1.18146e-08 	3.68114e-08 	-1.00553e-08 	1.1827e-07 	-3.17929e-08 	8.62412e-09
0.1    2.7 	0.0618283 	0.00385179 	0.0207582 	6.60512e-13 	-1.14994e-13 	-7.41537e-15 	1.9629e-13 	-2.33151e-14 	2.21624e-13 	1.18146e-08 	3.68114e-08 	-1.00553e-08 	1.1827e-07 	-3.17929e-08 	8.62412e-09
0.1    2.79 	0.0110661 	0.0236238 	0.0105867 	7.00326e-13 	-2.76987e-13 	2.06676e-14 	2.559e-13 	-2.69261e-14 	2.55344e-13 	1.3299e-07 	-1.77402e-08 	-1.38643e-07 	2.52402e-09 	1.86548e-08 	1.45536e-07
0.1    2.88 	0.0110661 	0.0236238 	0.0105867 	7.00326e-13 	-2.76987e-13 	2.06676e-14 	2.559e-13 	-2.69261e-14 	2.55344e-13 	1.3299e-07 	-1.77402e-08 	-1.38643e-07 	2.52402e-09 	1.86548e-08 	1.45536e-07
0.1    2.97 	0.145546 	-0.0287917 	-0.00969974 	7.80651e-13 	-5.01511e-13 	6.78769e-15 	4.09155e-13 	-1.21993e-14 	1.1998e-13 	2.61641e-07 	2.46786e-07 	-2.23149e-07 	2.42442e-07 	-2.14979e-07 	1.9242e-07
0.1    3.06 	0.145546 	-0.0287917 	-0.00969974 	7.80651e-13 	-5.01511e-13 	6.78769e-15 	4.09155e-13 	-1.21993e-14 	1.1998e-13 	2.61641e-07 	2.46786e-07 	-2.23149e-07 	2.42442e-07 	-2.14979e-07 	1.9242e-07
0.1    3.15 	0.0915203 	-0.0115433 	0.0450229 	9.38082e-13 	-3.59553e-13 	-4.65878e-14 	3.3784e-13 	4.51091e-14 	2.08216e-13 	2.14878e-07 	1.7872e-07 	-2.1977e-08 	1.51187e-07 	-1.59522e-08 	4.38338e-09
0.1    3.24 	0.0915203 	-0.0115433 	0.0450229 	9.38082e-13 	-3.59553e-13 	-4.65878e-14 	3.3784e-13 	4.51091e-14 	2.08216e-13 	2.14878e-07 	1.7872e-07 	-2.1977e-08 	1.51187e-07 	-1.59522e-08 	4.38338e-09
0.1    3.33 	0.0682776 	0.0592197 	0.0637628 	5.4897e-13 	-2.65028e-13 	7.94607e-14 	3.06447e-13 	1.06513e-14 	2.39452e-13 	3.11377e-07 	-6.19504e-09 	-3.57221e-07 	1.64514e-09 	7.32518e-09 	4.09854e-07
0.1    3.42 	0.0682776 	0.0592197 	0.0637628 	5.4897e-13 	-2.65028e-13 	7.94607e-14 	3.06447e-13 	1.06513e-14 	2.39452e-13 	3.11377e-07 	-6.19504e-09 	-3.57221e-07 	1.64514e-09 	7.32518e-09 	4.09854e-07
0.1    3.51 	0.0682776 	0.0592197 	0.0637628 	5.4897e-13 	-2.65028e-13 	7.94607e-14 	3.06447e-13 	1.06513e-14 	2.39452e-13 	3.11377e-07 	-6.19504e-09 	-3.57221e-07 	1.64514e-09 	7.32518e-09 	4.09854e-07
0.1    3.6 	0.149597 	-0.0507759 	0.0376949 	6.65363e-13 	-2.92843e-13 	3.22848e-13 	2.14368e-13 	-4.79199e-14 	2.80829e-13 	7.09024e-07 	-2.41261e-07 	1.66318e-07 	8.24134e-08 	-5.51163e-08 	4.59233e-08
0.1    3.69 	0.149597 	-0.0507759 	0.0376949 	6.65363e-13 	-2.92843e-13 	3.22848e-13 	2.14368e-13 	-4.79199e-14 	2.80829e-13 	7.09024e-07 	-2.41261e-07 	1.66318e-07 	8.24134e-08 	-5.51163e-08 	4.59233e-08
0.1    3.78 	0.188356 	-0.104886 	0.0214654 	1.11524e-12 	-3.55469e-13 	4.12369e-14 	1.49575e-13 	-2.31571e-14 	2.97159e-13 	1.04685e-07 	-1.48224e-07 	-2.60385e-08 	2.2359e-07 	3.33997e-08 	7.36008e-09
0.1    3.87 	0.188356 	-0.104886 	0.0214654 	1.11524e-12 	-3.55469e-13 	4.12369e-14 	1.49575e-13 	-2.31571e-14 	2.97159e-13 	1.04685e-07 	-1.48224e-07 	-2.60385e-08 	2.2359e-07 	3.33997e-08 	7.36008e-09
0.1    3.96 	0.135645 	-0.0268696 	-0.0704639 	7.01331e-13 	-3.18045e-13 	-1.18158e-13 	1.60252e-13 	2.84589e-14 	2.11673e-13 	1.7217e-07 	1.70947e-07 	1.72674e-08 	1.69806e-07 	1.83185e-08 	2.62639e-08
0.1    4.05 	0.135645 	-0.0268696 	-0.0704639 	7.01331e-13 	-3.18045e-13 	-1.18158e-13 	1.60252e-13 	2.84589e-14 	2.11673e-13 	1.7217e-07 	1.70947e-07 	1.72674e-08 	1.69806e-07 	1.83185e-08 	2.62639e-08
0.1    4.14 	0.0387203 	0.0292094 	0.0399307 	9.80949e-13 	-3.67929e-13 	-1.99239e-14 	2.48154e-13 	-7.33416e-15 	1.94639e-13 	1.98435e-07 	-9.48939e-08 	-2.3123e-07 	4.54647e-08 	1.11263e-07 	2.75077e-07
0.1    4.23 	0.0387203 	0.0292094 	0.0399307 	9.80949e-13 	-3.67929e-13 	-1.99239e-14 	2.48154e-13 	-7.33416e-15 	1.94639e-13 	1.98435e-07 	-9.48939e-08 	-2.3123e-07 	4.54647e-08 	1.11263e-07 	2.75077e-07
0.1    4.32 	0.140224 	0.0220151 	-0.0104014 	1.07154e-12 	-3.08845e-13 	-1.47321e-13 	2.37872e-13 	8.78917e-14 	3.36432e-13 	6.79367e-08 	3.00945e-08 	2.04874e-07 	1.51999e-08 	9.35725e-08 	6.22113e-07
0.1    4.41 	0.140224 	0.0220151 	-0.0104014 	1.07154e-12 	-3.08845e-13 	-1.47321e-13 	2.37872e-13 	8.78917e-14 	3.36432e-13 	6.79367e-08 	3.00945e-08 	2.04874e-07 	1.51999e-08 	9.35725e-08 	6.22113e-07
0.1    4.5 	0.140224 	0.0220151 	-0.0104014 	1.07154e-12 	-3.08845e-13 	-1.47321e-13 	2.37872e-13 	8.78917e-14 	3.36432e-13 	6.79367e-08 	3.00945e-08 	2.04874e-07 	1.51999e-08 	9.35725e-08 	6.22113e-07
