0.1    0 	-0.00765744 	0.0214206 	0.026422 	6.00635e-13 	-9.61884e-14 	7.3496e-14 	2.41798e-13 	-9.42756e-14 	8.27024e-13 	1.87405e-08 	1.29152e-08 	1.87773e-08 	1.02045e-08 	1.37712e-08 	1.93745e-08
0.1    0.09 	-0.00765744 	0.0214206 	0.026422 	6.00635e-13 	-9.61884e-14 	7.3496e-14 	2.41798e-13 	-9.42756e-14 	8.27024e-13 	1.87405e-08 	1.29152e-08 	1.87773e-08 	1.02045e-08 	1.37712e-08 	1.93745e-08
0.1    0.18 	-0.00765744 	0.0214206 	0.026422 	6.00635e-13 	-9.61884e-14 	7.3496e-14 	2.41798e-13 	-9.42756e-14 	8.27024e-13 	1.87405e-08 	1.29152e-08 	1.87773e-08 	1.02045e-08 	1.37712e-08 	1.93745e-08
0.1    0.27 	0.0182476 	0.00312284 	0.0136828 	7.55522e-13 	-4.63903e-15 	8.67372e-15 	2.25219e-13 	-1.17015e-13 	4.7864e-13 	1.51742e-08 	-1.55306e-08 	-9.55343e-09 	1.66216e-08 	1.0371e-08 	6.50534e-09
0.1    0.36 	0.0182476 	0.00312284 	0.0136828 	7.55522e-13 	-4.63903e-15 	8.67372e-15 	2.25219e-13 	-1.17015e-13 	4.7864e-13 	1.51742e-08 	-1.55306e-08 	-9.55343e-09 	1.66216e-08 	1.0371e-08 	6.50534e-09
0.1    0.45 	0.0262785 	-0.0252909 	0.00157699 	5.91402e-13 	-1.02579e-13 	-8.72714e-15 	1.84668e-13 	-3.81224e-14 	4.22894e-13 	3.20654e-08 	-2.73179e-08 	-6.28712e-08 	2.36104e-08 	5.43439e-08 	1.25128e-07
0.1    0.54 	0.0262785 	-0.0252909 	0.00157699 	5.91402e-13 	-1.02579e-13 	-8.72714e-15 	1.84668e-13 	-3.81224e-14 	4.22894e-13 	3.20654e-08 	-2.73179e-08 	-6.28712e-08 	2.36104e-08 	5.43439e-08 	1.25128e-07
0.1    0.63 	-0.00119813 	-0.0033485 	0.0226244 	6.61512e-13 	1.87802e-13 	5.20329e-13 	4.44926e-13 	5.14909e-13 	1.9572e-12 	6.34458e-09 	-2.20715e-09 	2.09197e-08 	9.22564e-10 	-7.36943e-09 	6.90607e-08
0.1    0.72 	-0.00119813 	-0.0033485 	0.0226244 	6.61512e-13 	1.87802e-13 	5.20329e-13 	4.44926e-13 	5.14909e-13 	1.9572e-12 	6.34458e-09 	-2.20715e-09 	2.09197e-08 	9.22564e-10 	-7.36943e-09 	6.90607e-08
0.1    0.81 	-0.0132353 	0.0076004 	0.0122202 	6.83072e-13 	-2.53873e-14 	2.06484e-13 	2.35909e-13 	-2.98875e-14 	8.85452e-13 	3.53012e-09 	1.04664e-09 	4.39894e-09 	3.12114e-10 	1.29331e-09 	5.63235e-09
0.1    0.9 	-0.0132353 	0.0076004 	0.0122202 	6.83072e-13 	-2.53873e-14 	2.06484e-13 	2.35909e-13 	-2.98875e-14 	8.85452e-13 	3.53012e-09 	1.04664e-09 	4.39894e-09 	3.12114e-10 	1.29331e-09 	5.63235e-09
0.1    0.99 	-0.0208078 	0.00710608 	2.05996e-05 	1.06544e-12 	3.87396e-15 	9.77641e-13 	2.0144e-13 	-5.04837e-13 	2.06866e-12 	8.26323e-09 	-8.65231e-09 	8.31069e-10 	9.07124e-09 	-8.48657e-10 	2.09747e-10
0.1    1.08 	-0.0208078 	0.00710608 	2.05996e-05 	1.06544e-12 	3.87396e-15 	9.77641e-13 	2.0144e-13 	-5.04837e-13 	2.06866e-12 	8.26323e-09 	-8.65231e-09 	8.31069e-10 	9.07124e-09 	-8.48657e-10 	2.09747e-10
0.1    1.17 	-0.0208078 	0.00710608 	2.05996e-05 	1.06544e-12 	3.87396e-15 	9.77641e-13 	2.0144e-13 	-5.04837e-13 	2.06866e-12 	8.26323e-09 	-8.65231e-09 	8.31069e-10 	9.07124e-09 	-8.48657e-10 	2.09747e-10
0.1    1.26 	-0.00767867 	0.00516921 	-0.00381453 	6.24397e-13 	4.49835e-14 	2.97389e-14 	2.60819e-13 	-1.22328e-13 	3.63982e-13 	1.49142e-08 	-4.64232e-09 	-3.14908e-08 	1.46e-09 	9.7767e-09 	6.65388e-08
0.1    1.35 	-0.00767867 	0.00516921 	-0.00381453 	6.24397e-13 	4.49835e-14 	2.97389e-14 	2.60819e-13 	-1.22328e-13 	3.63982e-13 	1.49142e-08 	-4.64232e-09 	-3.14908e-08 	1.46e-09 	9.7767e-09 	6.65388e-08
0.1    1.44 	-0.00206039 	-0.00957147 	0.00420498 	6.31159e-13 	-2.24328e-13 	2.44763e-14 	3.95787e-13 	-3.04731e-14 	3.66657e-13 	3.59436e-08 	6.58959e-09 	-1.7974e-08 	1.28028e-09 	-3.31876e-09 	8.99688e-09
0.1    1.53 	-0.00206039 	-0.00957147 	0.00420498 	6.31159e-13 	-2.24328e-13 	2.44763e-14 	3.95787e-13 	-3.04731e-14 	3.66657e-13 	3.59436e-08 	6.58959e-09 	-1.7974e-08 	1.28028e-09 	-3.31876e-09 	8.99688e-09
0.1    1.62 	-0.00645214 	-0.00378661 	0.0634919 	3.83626e-13 	-9.61933e-14 	6.46827e-14 	3.39217e-13 	-2.38097e-13 	9.88149e-13 	1.65666e-08 	-1.14242e-08 	-6.8165e-09 	8.16051e-09 	4.69243e-09 	2.8056e-09
0.1    1.71 	-0.00645214 	-0.00378661 	0.0634919 	3.83626e-13 	-9.61933e-14 	6.46827e-14 	3.39217e-13 	-2.38097e-13 	9.88149e-13 	1.65666e-08 	-1.14242e-08 	-6.8165e-09 	8.16051e-09 	4.69243e-09 	2.8056e-09
0.1    1.8 	-0.0174743 	0.00943793 	0.0125417 	4.71505e-13 	-3.66408e-14 	-1.01035e-13 	2.48949e-13 	-1.40623e-13 	1.09042e-12 	1.99796e-10 	-1.11588e-10 	-1.72345e-10 	1.54789e-10 	1.30726e-10 	1.62092e-10
0.1    1.89 	-0.0174743 	0.00943793 	0.0125417 	4.71505e-13 	-3.66408e-14 	-1.01035e-13 	2.48949e-13 	-1.40623e-13 	1.09042e-12 	1.99796e-10 	-1.11588e-10 	-1.72345e-10 	1.54789e-10 	1.30726e-10 	1.62092e-10
0.1    1.98 	-0.00928363 	0.00623628 	0.000357538 	6.53779e-13 	-1.18227e-13 	-4.12267e-13 	2.87346e-13 	3.56762e-13 	1.41156e-12 	1.59953e-10 	7.06208e-10 	2.19255e-09 	3.16509e-09 	9.96341e-09 	3.19197e-08
0.1    2.07 	-0.00928363 	0.00623628 	0.000357538 	6.53779e-13 	-1.18227e-13 	-4.12267e-13 	2.87346e-13 	3.56762e-13 	1.41156e-12 	1.59953e-10 	7.06208e-10 	2.19255e-09 	3.16509e-09 	9.96341e-09 	3.19197e-08
0.1    2.16 	-0.0257369 	-0.00165065 	-0.0194618 	9.62357e-13 	-3.23425e-13 	-3.56984e-13 	3.50179e-13 	1.93771e-13 	5.09956e-13 	1.83727e-10 	9.69464e-10 	1.82407e-09 	6.95326e-09 	1.26678e-08 	2.3191e-08
0.1    2.25 	-0.0257369 	-0.00165065 	-0.0194618 	9.62357e-13 	-3.23425e-13 	-3.56984e-13 	3.50179e-13 	1.93771e-13 	5.09956e-13 	1.83727e-10 	9.69464e-10 	1.82407e-09 	6.95326e-09 	1.26678e-08 	2.3191e-08
0.1    2.34 	-0.0257369 	-0.00165065 	-0.0194618 	9.62357e-13 	-3.23425e-13 	-3.56984e-13 	3.50179e-13 	1.93771e-13 	5.09956e-13 	1.83727e-10 	9.69464e-10 	1.82407e-09 	6.95326e-09 	1.26678e-08 	2.3191e-08
0.1    2.43 	-0.00854135 	-0.00106588 	-0.0301478 	1.35777e-12 	-1.93355e-13 	-3.89577e-13 	3.53457e-13 	-6.82163e-15 	4.32671e-13 	4.59897e-08 	-4.88012e-10 	-1.39647e-08 	7.33707e-12 	1.48315e-10 	4.24971e-09
0.1    2.52 	-0.00854135 	-0.00106588 	-0.0301478 	1.35777e-12 	-1.93355e-13 	-3.89577e-13 	3.53457e-13 	-6.82163e-15 	4.32671e-13 	4.59897e-08 	-4.88012e-10 	-1.39647e-08 	7.33707e-12 	1.48315e-10 	4.24971e-09
0.1    2.61 	0.0664819 	-0.00853469 	0.0128417 	1.21965e-12 	4.45655e-13 	-4.88113e-13 	9.92918e-13 	-8.56184e-13 	1.40841e-12 	2.13983e-07 	-1.30798e-08 	-3.53631e-07 	1.03205e-09 	2.1845e-08 	5.84687e-07
0.1    2.7 	0.0664819 	-0.00853469 	0.0128417 	1.21965e-12 	4.45655e-13 	-4.88113e-13 	9.92918e-13 	-8.56184e-13 	1.40841e-12 	2.13983e-07 	-1.30798e-08 	-3.53631e-07 	1.03205e-09 	2.1845e-08 	5.84687e-07
0.1    2.79 	-0.0184571 	0.00587163 	0.0273006 	1.0129e-12 	-2.34654e-13 	1.67942e-13 	3.03184e-13 	-7.7758e-14 	3.86983e-13 	1.45087e-07 	-4.62944e-08 	1.86415e-07 	1.52192e-08 	-5.97215e-08 	2.39646e-07
0.1    2.88 	-0.0184571 	0.00587163 	0.0273006 	1.0129e-12 	-2.34654e-13 	1.67942e-13 	3.03184e-13 	-7.7758e-14 	3.86983e-13 	1.45087e-07 	-4.62944e-08 	1.86415e-07 	1.52192e-08 	-5.97215e-08 	2.39646e-07
0.1    2.97 	-0.0092774 	0.0029031 	0.0298721 	5.34768e-13 	-1.08602e-13 	1.04281e-13 	1.74701e-13 	-6.09638e-14 	4.49459e-13 	2.03341e-09 	-1.59963e-09 	9.39158e-10 	1.30242e-09 	-7.21905e-10 	5.75375e-10
0.1    3.06 	-0.0092774 	0.0029031 	0.0298721 	5.34768e-13 	-1.08602e-13 	1.04281e-13 	1.74701e-13 	-6.09638e-14 	4.49459e-13 	2.03341e-09 	-1.59963e-09 	9.39158e-10 	1.30242e-09 	-7.21905e-10 	5.75375e-10
0.1    3.15 	-0.0368088 	0.0120662 	-0.004856 	5.27204e-13 	-8.47191e-14 	-2.54556e-13 	2.17534e-13 	-2.14151e-14 	4.37959e-13 	8.08996e-10 	-4.32956e-10 	3.53199e-10 	2.55208e-08 	-1.89242e-08 	1.40967e-08
0.1    3.24 	-0.0368088 	0.0120662 	-0.004856 	5.27204e-13 	-8.47191e-14 	-2.54556e-13 	2.17534e-13 	-2.14151e-14 	4.37959e-13 	8.08996e-10 	-4.32956e-10 	3.53199e-10 	2.55208e-08 	-1.89242e-08 	1.40967e-08
0.1    3.33 	-0.0395585 	-0.000972641 	0.0325246 	1.42395e-12 	-4.65603e-13 	3.66697e-13 	6.93599e-13 	-7.19875e-13 	1.54906e-12 	1.25391e-08 	2.40695e-09 	1.40711e-08 	4.88303e-10 	2.79736e-09 	1.61761e-08
0.1    3.42 	-0.0395585 	-0.000972641 	0.0325246 	1.42395e-12 	-4.65603e-13 	3.66697e-13 	6.93599e-13 	-7.19875e-13 	1.54906e-12 	1.25391e-08 	2.40695e-09 	1.40711e-08 	4.88303e-10 	2.79736e-09 	1.61761e-08
0.1    3.51 	-0.0395585 	-0.000972641 	0.0325246 	1.42395e-12 	-4.65603e-13 	3.66697e-13 	6.93599e-13 	-7.19875e-13 	1.54906e-12 	1.25391e-08 	2.40695e-09 	1.40711e-08 	4.88303e-10 	2.79736e-09 	1.61761e-08
0.1    3.6 	-0.0298832 	0.00395252 	0.0138157 	7.05812e-13 	-1.54228e-13 	-6.626e-14 	3.05394e-13 	-1.5498e-13 	6.76975e-13 	1.17674e-08 	-6.31981e-09 	-9.59509e-09 	5.9084e-09 	5.64433e-09 	7.91982e-09
0.1    3.69 	-0.0298832 	0.00395252 	0.0138157 	7.05812e-13 	-1.54228e-13 	-6.626e-14 	3.05394e-13 	-1.5498e-13 	6.76975e-13 	1.17674e-08 	-6.31981e-09 	-9.59509e-09 	5.9084e-09 	5.64433e-09 	7.91982e-09
0.1    3.78 	0.112679 	0.00569703 	0.00709385 	1.16381e-12 	-2.91534e-13 	2.61322e-13 	2.92355e-13 	-1.17979e-13 	2.93013e-13 	2.51383e-07 	-5.11149e-08 	2.4056e-08 	1.11416e-08 	-5.00232e-09 	2.32437e-09
0.1    3.87 	0.112679 	0.00569703 	0.00709385 	1.16381e-12 	-2.91534e-13 	2.61322e-13 	2.92355e-13 	-1.17979e-13 	2.93013e-13 	2.51383e-07 	-5.11149e-08 	2.4056e-08 	1.11416e-08 	-5.00232e-09 	2.32437e-09
0.1    3.96 	0.0873456 	-0.0143646 	0.043391 	1.11419e-12 	-3.24536e-13 	2.25467e-13 	3.04995e-13 	-5.47856e-14 	3.44076e-13 	2.93473e-07 	-1.42058e-07 	1.10235e-07 	7.11849e-08 	-5.48851e-08 	4.23679e-08
0.1    4.05 	0.0873456 	-0.0143646 	0.043391 	1.11419e-12 	-3.24536e-13 	2.25467e-13 	3.04995e-13 	-5.47856e-14 	3.44076e-13 	2.93473e-07 	-1.42058e-07 	1.10235e-07 	7.11849e-08 	-5.48851e-08 	4.23679e-08
0.1    4.14 	0.0180712 	0.00431929 	-0.00504961 	4.83482e-13 	-1.94529e-14 	2.34428e-14 	1.82152e-13 	9.55837e-14 	3.40044e-13 	1.0775e-07 	-3.95633e-08 	-1.02569e-07 	1.45837e-08 	3.76625e-08 	9.7657e-08
0.1    4.23 	0.0180712 	0.00431929 	-0.00504961 	4.83482e-13 	-1.94529e-14 	2.34428e-14 	1.82152e-13 	9.55837e-14 	3.40044e-13 	1.0775e-07 	-3.95633e-08 	-1.02569e-07 	1.45837e-08 	3.76625e-08 	9.7657e-08
0.1    4.32 	0.0227604 	-0.00664633 	0.0795351 	7.6942e-13 	-2.0771e-13 	-1.61292e-13 	2.76564e-13 	1.35764e-13 	4.80529e-13 	5.36041e-10 	2.04405e-10 	8.48702e-10 	1.78618e-09 	-5.1816e-09 	1.9136e-08
0.1    4.41 	0.0227604 	-0.00664633 	0.0795351 	7.6942e-13 	-2.0771e-13 	-1.61292e-13 	2.76564e-13 	1.35764e-13 	4.80529e-13 	5.36041e-10 	2.04405e-10 	8.48702e-10 	1.78618e-09 	-5.1816e-09 	1.9136e-08
0.1    4.5 	0.0227604 	-0.00664633 	0.0795351 	7.6942e-13 	-2.0771e-13 	-1.61292e-13 	2.76564e-13 	1.35764e-13 	4.80529e-13 	5.36041e-10 	2.04405e-10 	8.48702e-10 	1.78618e-09 	-5.1816e-09 	1.9136e-08
