0.02    0.02    0.02    0.02    0 	0.170092 	0.0103725 	-0.00397624 	8.11599e-13 	8.0805e-14 	1.07448e-13 	4.06696e-13 	-1.7382e-13 	8.60795e-13 	5.01357e-10 	7.79772e-10 	8.31572e-10 	1.77589e-09 	1.34856e-09 	1.38816e-09
0.02    0.02    0.02    0.02    0.09 	0.170092 	0.0103725 	-0.00397624 	8.11599e-13 	8.0805e-14 	1.07448e-13 	4.06696e-13 	-1.7382e-13 	8.60795e-13 	5.01357e-10 	7.79772e-10 	8.31572e-10 	1.77589e-09 	1.34856e-09 	1.38816e-09
0.02    0.02    0.02    0.02    0.18 	0.170092 	0.0103725 	-0.00397624 	8.11599e-13 	8.0805e-14 	1.07448e-13 	4.06696e-13 	-1.7382e-13 	8.60795e-13 	5.01357e-10 	7.79772e-10 	8.31572e-10 	1.77589e-09 	1.34856e-09 	1.38816e-09
0.02    0.02    0.02    0.02    0.27 	0.207916 	0.00837367 	-0.0343727 	6.29046e-13 	-7.21136e-14 	-4.36848e-14 	3.65233e-13 	7.77401e-15 	4.00637e-13 	7.99562e-09 	1.0277e-08 	5.30318e-09 	1.40086e-08 	6.82124e-09 	3.52847e-09
0.02    0.02    0.02    0.02    0.36 	0.207916 	0.00837367 	-0.0343727 	6.29046e-13 	-7.21136e-14 	-4.36848e-14 	3.65233e-13 	7.77401e-15 	4.00637e-13 	7.99562e-09 	1.0277e-08 	5.30318e-09 	1.40086e-08 	6.82124e-09 	3.52847e-09
0.02    0.02    0.02    0.02    0.45 	0.17886 	-0.0029233 	-0.0224065 	5.23287e-13 	2.11707e-14 	4.46942e-14 	4.43245e-13 	1.03735e-13 	3.53906e-13 	3.92863e-09 	1.23692e-08 	4.73194e-09 	3.9827e-08 	1.50446e-08 	5.72406e-09
0.02    0.02    0.02    0.02    0.54 	0.17886 	-0.0029233 	-0.0224065 	5.23287e-13 	2.11707e-14 	4.46942e-14 	4.43245e-13 	1.03735e-13 	3.53906e-13 	3.92863e-09 	1.23692e-08 	4.73194e-09 	3.9827e-08 	1.50446e-08 	5.72406e-09
0.02    0.02    0.02    0.02    0.63 	0.181547 	-0.00589596 	0.0275779 	6.9216e-13 	7.89217e-14 	1.80696e-13 	5.59303e-13 	-1.06991e-13 	8.97358e-13 	9.74636e-09 	2.27532e-09 	1.43377e-09 	8.9856e-10 	3.71518e-10 	2.2548e-10
0.02    0.02    0.02    0.02    0.72 	0.181547 	-0.00589596 	0.0275779 	6.9216e-13 	7.89217e-14 	1.80696e-13 	5.59303e-13 	-1.06991e-13 	8.97358e-13 	9.74636e-09 	2.27532e-09 	1.43377e-09 	8.9856e-10 	3.71518e-10 	2.2548e-10
0.02    0.02    0.02    0.02    0.81 	0.181826 	-0.00410893 	-0.0124765 	6.58614e-13 	-6.63585e-14 	1.79294e-13 	5.46468e-13 	2.97378e-13 	6.89069e-13 	6.16591e-09 	2.20808e-09 	2.05788e-09 	1.05071e-09 	7.75356e-10 	6.9251e-10
0.02    0.02    0.02    0.02    0.9 	0.181826 	-0.00410893 	-0.0124765 	6.58614e-13 	-6.63585e-14 	1.79294e-13 	5.46468e-13 	2.97378e-13 	6.89069e-13 	6.16591e-09 	2.20808e-09 	2.05788e-09 	1.05071e-09 	7.75356e-10 	6.9251e-10
0.02    0.02    0.02    0.02    0.99 	0.115815 	0.00639349 	0.0194381 	4.61138e-13 	-1.1373e-13 	9.88263e-14 	2.64372e-13 	3.32548e-14 	3.93766e-13 	2.02237e-10 	-5.41965e-11 	-4.09017e-10 	2.15168e-11 	1.25047e-10 	8.61346e-10
0.02    0.02    0.02    0.02    1.08 	0.115815 	0.00639349 	0.0194381 	4.61138e-13 	-1.1373e-13 	9.88263e-14 	2.64372e-13 	3.32548e-14 	3.93766e-13 	2.02237e-10 	-5.41965e-11 	-4.09017e-10 	2.15168e-11 	1.25047e-10 	8.61346e-10
0.02    0.02    0.02    0.02    1.17 	0.115815 	0.00639349 	0.0194381 	4.61138e-13 	-1.1373e-13 	9.88263e-14 	2.64372e-13 	3.32548e-14 	3.93766e-13 	2.02237e-10 	-5.41965e-11 	-4.09017e-10 	2.15168e-11 	1.25047e-10 	8.61346e-10
0.02    0.02    0.02    0.02    1.26 	0.10445 	0.0115715 	0.000212797 	5.9051e-13 	-1.50847e-13 	2.1667e-14 	2.68308e-13 	5.13461e-14 	4.34587e-13 	5.75765e-10 	-4.04661e-11 	8.35907e-10 	1.43727e-11 	-7.70532e-11 	1.24438e-09
0.02    0.02    0.02    0.02    1.35 	0.1177 	0.00849013 	0.00686524 	5.75426e-13 	-1.35491e-13 	5.36735e-14 	2.66147e-13 	3.46751e-14 	4.50422e-13 	3.58399e-10 	-3.85896e-10 	4.96378e-10 	4.50949e-10 	-5.56323e-10 	7.0104e-10
0.02    0.02    0.02    0.02    1.44 	0.123232 	0.0120504 	0.02268 	4.95803e-13 	-1.06073e-13 	1.29516e-13 	2.34007e-13 	-1.79464e-14 	4.42592e-13 	1.37029e-10 	-4.67701e-10 	4.46836e-10 	1.78751e-09 	-1.6691e-09 	1.56832e-09
0.02    0.02    0.02    0.02    1.53 	0.123232 	0.0120504 	0.02268 	4.95803e-13 	-1.06073e-13 	1.29516e-13 	2.34007e-13 	-1.79464e-14 	4.42592e-13 	1.37029e-10 	-4.67701e-10 	4.46836e-10 	1.78751e-09 	-1.6691e-09 	1.56832e-09
0.02    0.02    0.02    0.02    1.62 	0.11912 	0.0113839 	-0.00687061 	4.94514e-13 	-5.07321e-14 	9.49178e-14 	2.46645e-13 	-3.92322e-14 	5.58905e-13 	2.11096e-10 	8.46709e-11 	-8.18288e-10 	5.21604e-11 	-3.11462e-10 	3.19124e-09
0.02    0.02    0.02    0.02    1.71 	0.127031 	0.0154257 	-0.01301 	4.37709e-13 	-3.74889e-14 	8.72447e-14 	2.38914e-13 	-6.06448e-14 	5.36517e-13 	4.60384e-10 	-7.52861e-10 	8.10584e-11 	1.27268e-09 	-1.39648e-10 	1.69751e-11
0.02    0.02    0.02    0.02    1.8 	0.0518347 	0.00742595 	-0.0236443 	4.76284e-13 	-7.92934e-14 	-9.70952e-14 	2.10041e-13 	-5.15653e-14 	4.35515e-13 	1.82234e-09 	3.35337e-10 	-4.58426e-10 	6.46292e-11 	-8.50488e-11 	1.15952e-10
0.02    0.02    0.02    0.02    1.89 	0.0518347 	0.00742595 	-0.0236443 	4.76284e-13 	-7.92934e-14 	-9.70952e-14 	2.10041e-13 	-5.15653e-14 	4.35515e-13 	1.82234e-09 	3.35337e-10 	-4.58426e-10 	6.46292e-11 	-8.50488e-11 	1.15952e-10
0.02    0.02    0.02    0.02    1.98 	0.09104 	-0.000976354 	-0.0117591 	7.28792e-13 	-1.27431e-13 	-1.86424e-13 	2.56734e-13 	-2.77534e-14 	4.3185e-13 	7.70674e-10 	6.87176e-10 	3.01329e-10 	6.1406e-10 	2.65631e-10 	1.24813e-10
0.02    0.02    0.02    0.02    2.07 	0.09104 	-0.000976354 	-0.0117591 	7.28792e-13 	-1.27431e-13 	-1.86424e-13 	2.56734e-13 	-2.77534e-14 	4.3185e-13 	7.70674e-10 	6.87176e-10 	3.01329e-10 	6.1406e-10 	2.65631e-10 	1.24813e-10
0.02    0.02    0.02    0.02    2.16 	0.145474 	-0.0103773 	-0.0393671 	4.80385e-13 	-7.67105e-14 	-6.92709e-14 	2.50672e-13 	-9.26223e-14 	4.29682e-13 	7.47064e-10 	-2.93808e-10 	8.04455e-10 	1.35244e-10 	-3.39512e-10 	8.94689e-10
0.02    0.02    0.02    0.02    2.25 	0.145474 	-0.0103773 	-0.0393671 	4.80385e-13 	-7.67105e-14 	-6.92709e-14 	2.50672e-13 	-9.26223e-14 	4.29682e-13 	7.47064e-10 	-2.93808e-10 	8.04455e-10 	1.35244e-10 	-3.39512e-10 	8.94689e-10
0.02    0.02    0.02    0.02    2.34 	0.145474 	-0.0103773 	-0.0393671 	4.80385e-13 	-7.67105e-14 	-6.92709e-14 	2.50672e-13 	-9.26223e-14 	4.29682e-13 	7.47064e-10 	-2.93808e-10 	8.04455e-10 	1.35244e-10 	-3.39512e-10 	8.94689e-10
0.02    0.02    0.02    0.02    2.43 	0.106224 	0.00539096 	-0.0506682 	4.54936e-13 	-5.76839e-14 	-5.75249e-14 	2.42767e-13 	-1.17336e-13 	4.31029e-13 	1.22881e-10 	-3.87252e-11 	7.73779e-10 	4.92472e-11 	-4.53008e-10 	6.05387e-09
0.02    0.02    0.02    0.02    2.52 	0.114599 	0.0111655 	-0.0197375 	4.18204e-13 	-6.2598e-14 	-2.9671e-14 	2.32375e-13 	-1.16952e-13 	4.41704e-13 	1.51838e-10 	-3.34705e-10 	-8.52263e-11 	8.85148e-10 	2.07433e-10 	5.37967e-11
0.02    0.02    0.02    0.02    2.61 	0.138364 	0.00494729 	-4.07193e-05 	4.19473e-13 	-8.00283e-14 	-8.65224e-14 	2.27597e-13 	-3.0532e-14 	3.67991e-13 	9.11927e-10 	2.27501e-10 	-2.27161e-09 	6.27274e-11 	-5.34435e-10 	5.85112e-09
0.02    0.02    0.02    0.02    2.7 	0.101212 	-0.0148992 	-0.0189191 	5.24485e-13 	-1.66532e-13 	-1.13817e-13 	2.69655e-13 	1.01854e-14 	3.45622e-13 	1.16831e-08 	8.24859e-09 	-5.67402e-09 	5.82415e-09 	-4.00538e-09 	2.75883e-09
0.02    0.02    0.02    0.02    2.79 	0.192114 	-0.0324806 	-0.0388359 	5.772e-13 	-2.17253e-13 	-9.46817e-14 	3.58524e-13 	5.93951e-15 	2.73232e-13 	3.82595e-10 	6.5337e-10 	6.56108e-10 	1.11937e-09 	1.12586e-09 	1.13802e-09
0.02    0.02    0.02    0.02    2.88 	0.192114 	-0.0324806 	-0.0388359 	5.772e-13 	-2.17253e-13 	-9.46817e-14 	3.58524e-13 	5.93951e-15 	2.73232e-13 	3.82595e-10 	6.5337e-10 	6.56108e-10 	1.11937e-09 	1.12586e-09 	1.13802e-09
0.02    0.02    0.02    0.02    2.97 	0.166096 	-0.0277719 	0.00580147 	4.81927e-13 	-1.78153e-13 	-2.6237e-15 	2.58512e-13 	8.5625e-15 	2.77201e-13 	1.42149e-09 	5.14131e-11 	4.23104e-10 	7.28951e-12 	1.32427e-11 	1.26778e-10
0.02    0.02    0.02    0.02    3.06 	0.166096 	-0.0277719 	0.00580147 	4.81927e-13 	-1.78153e-13 	-2.6237e-15 	2.58512e-13 	8.5625e-15 	2.77201e-13 	1.42149e-09 	5.14131e-11 	4.23104e-10 	7.28951e-12 	1.32427e-11 	1.26778e-10
0.02    0.02    0.02    0.02    3.15 	0.142259 	0.001416 	-0.0222136 	5.63009e-13 	-1.60773e-13 	-6.20526e-14 	2.52943e-13 	7.25941e-14 	3.35209e-13 	1.60454e-08 	1.63957e-09 	-2.62697e-09 	1.81153e-10 	-2.67517e-10 	4.30336e-10
0.02    0.02    0.02    0.02    3.24 	0.142259 	0.001416 	-0.0222136 	5.63009e-13 	-1.60773e-13 	-6.20526e-14 	2.52943e-13 	7.25941e-14 	3.35209e-13 	1.60454e-08 	1.63957e-09 	-2.62697e-09 	1.81153e-10 	-2.67517e-10 	4.30336e-10
0.02    0.02    0.02    0.02    3.33 	0.156083 	0.0085294 	0.00424186 	5.68399e-13 	-2.08022e-13 	-5.54629e-14 	3.45162e-13 	3.46058e-15 	3.13066e-13 	1.07619e-08 	-2.91263e-09 	6.17916e-09 	7.9649e-10 	-1.67334e-09 	3.54801e-09
0.02    0.02    0.02    0.02    3.42 	0.0608125 	-0.00363782 	0.0118296 	5.90993e-13 	-2.15918e-13 	-3.4872e-14 	2.91958e-13 	1.71882e-14 	3.20578e-13 	1.34149e-08 	2.24511e-09 	7.37994e-10 	3.77648e-10 	1.2284e-10 	4.08548e-11
0.02    0.02    0.02    0.02    3.51 	0.0608125 	-0.00363782 	0.0118296 	5.90993e-13 	-2.15918e-13 	-3.4872e-14 	2.91958e-13 	1.71882e-14 	3.20578e-13 	1.34149e-08 	2.24511e-09 	7.37994e-10 	3.77648e-10 	1.2284e-10 	4.08548e-11
0.02    0.02    0.02    0.02    3.6 	0.151396 	-0.00397653 	0.035621 	5.51635e-13 	-1.82868e-13 	2.61034e-14 	2.53084e-13 	1.3478e-14 	3.06246e-13 	1.8046e-11 	2.57279e-10 	-2.32288e-10 	4.01677e-09 	-3.6761e-09 	3.3709e-09
0.02    0.02    0.02    0.02    3.69 	0.151396 	-0.00397653 	0.035621 	5.51635e-13 	-1.82868e-13 	2.61034e-14 	2.53084e-13 	1.3478e-14 	3.06246e-13 	1.8046e-11 	2.57279e-10 	-2.32288e-10 	4.01677e-09 	-3.6761e-09 	3.3709e-09
0.02    0.02    0.02    0.02    3.78 	0.109105 	0.0131064 	-0.00887039 	6.06829e-13 	-2.22323e-13 	3.46549e-14 	2.61583e-13 	2.77708e-15 	3.30734e-13 	2.50109e-08 	1.60765e-08 	2.59169e-09 	1.03349e-08 	1.66683e-09 	2.69293e-10
0.02    0.02    0.02    0.02    3.87 	0.109105 	0.0131064 	-0.00887039 	6.06829e-13 	-2.22323e-13 	3.46549e-14 	2.61583e-13 	2.77708e-15 	3.30734e-13 	2.50109e-08 	1.60765e-08 	2.59169e-09 	1.03349e-08 	1.66683e-09 	2.69293e-10
0.02    0.02    0.02    0.02    3.96 	0.121409 	0.00237431 	-0.0121375 	6.90172e-13 	-2.19865e-13 	-7.82878e-15 	2.48088e-13 	2.5387e-14 	2.49826e-13 	8.5969e-09 	6.32366e-09 	4.40068e-09 	4.65234e-09 	3.23698e-09 	2.25268e-09
0.02    0.02    0.02    0.02    4.05 	0.121409 	0.00237431 	-0.0121375 	6.90172e-13 	-2.19865e-13 	-7.82878e-15 	2.48088e-13 	2.5387e-14 	2.49826e-13 	8.5969e-09 	6.32366e-09 	4.40068e-09 	4.65234e-09 	3.23698e-09 	2.25268e-09
0.02    0.02    0.02    0.02    4.14 	0.108618 	-0.0424653 	0.0252528 	1.00503e-12 	-3.2999e-13 	-4.84713e-14 	3.26402e-13 	6.93097e-15 	2.81246e-13 	2.06577e-09 	-1.13504e-09 	1.74922e-09 	6.35974e-10 	-9.67188e-10 	1.48419e-09
0.02    0.02    0.02    0.02    4.23 	0.039143 	0.0320356 	0.0417201 	1.51604e-12 	-5.91484e-13 	1.11767e-13 	2.94354e-13 	-7.50841e-14 	3.07827e-13 	1.74845e-08 	-9.29701e-10 	9.65393e-09 	4.99341e-11 	-5.13469e-10 	5.33057e-09
0.02    0.02    0.02    0.02    4.32 	0.113679 	0.0222881 	0.0231689 	6.11033e-13 	-2.18593e-13 	-1.12604e-14 	2.26863e-13 	-4.92872e-15 	2.37782e-13 	5.93042e-10 	-4.63093e-10 	1.01925e-09 	3.64189e-10 	-7.97419e-10 	1.75462e-09
0.02    0.02    0.02    0.02    4.41 	0.113679 	0.0222881 	0.0231689 	6.11033e-13 	-2.18593e-13 	-1.12604e-14 	2.26863e-13 	-4.92872e-15 	2.37782e-13 	5.93042e-10 	-4.63093e-10 	1.01925e-09 	3.64189e-10 	-7.97419e-10 	1.75462e-09
0.02    0.02    0.02    0.02    4.5 	0.113679 	0.0222881 	0.0231689 	6.11033e-13 	-2.18593e-13 	-1.12604e-14 	2.26863e-13 	-4.92872e-15 	2.37782e-13 	5.93042e-10 	-4.63093e-10 	1.01925e-09 	3.64189e-10 	-7.97419e-10 	1.75462e-09
